 Gaussian 09, Revision D.01,
 Gaussian 09:  ES64L-G09RevD.01 24-Apr-2013

 ----------------------------------------------------------------
 #p wb97xd/6-31g* TD=(singlets,root=1,nstates=10) units=(ang,deg)
 ----------------------------------------------------------------

 ---------
 SubPc-C60
 ---------
 Symbolic Z-matrix:
 Charge =  0 Multiplicity = 1

                         Standard orientation:
 ---------------------------------------------------------------------
 Center     Atomic      Atomic             Coordinates (Angstroms)
 Number     Number       Type             X           Y           Z
 ---------------------------------------------------------------------
      1          6           0       -2.274508   -3.377063   -4.125801
      2          6           0       -2.263053   -2.176926   -4.857772
      3          6           0       -2.862802   -1.028400   -4.364501
      4          6           0       -3.499115   -1.102110   -3.126404
      5          6           0       -2.882960   -3.455724   -2.882831
      6          6           0       -3.508892   -2.312701   -2.386370
      7          6           0       -4.084811   -0.076619   -2.279894
      8          7           0       -4.526754   -0.727402   -1.167380
      9          1           0       -1.785971   -4.253872   -4.539092
     10          1           0       -1.764636   -2.148866   -5.821605
     11          1           0       -2.832007   -0.091627   -4.910642
     12          1           0       -2.867978   -4.371314   -2.301162
     13          6           0       -4.094484   -2.017803   -1.089182
     14          7           0       -3.961881   -2.665579    0.070485
     15          6           0       -2.371410    5.281630   -0.851460
     16          6           0       -2.379280    5.322023    0.553886
     17          6           0       -2.960177    4.307426    1.298559
     18          6           0       -3.561290    3.252658    0.613032
     19          6           0       -2.944894    4.226267   -1.543315
     20          6           0       -3.553956    3.212454   -0.805311
     21          6           0       -4.123471    1.994237    1.075231
     22          7           0       -4.543935    1.346366   -0.047835
     23          1           0       -1.895073    6.087256   -1.401311
     24          1           0       -1.909632    6.158443    1.061923
     25          1           0       -2.941882    4.318032    2.383175
     26          1           0       -2.914117    4.173662   -2.626437
     27          5           0       -5.140800   -0.017002   -0.012185
     28          6           0       -4.111764    1.929946   -1.201203
     29          7           0       -3.958470    1.250980   -2.339371
     30          6           0       -2.310268   -1.891396    4.977009
     31          6           0       -2.317412   -3.133315    4.316477
     32          6           0       -2.919605   -3.285852    3.077934
     33          6           0       -3.541645   -2.174173    2.510303
     34          6           0       -2.910472   -0.775822    4.415263
     35          6           0       -3.539829   -0.923162    3.179374
     36          6           0       -4.107319   -1.952956    1.189853
     37          7           0       -4.538028   -0.659633    1.187425
     38          1           0       -1.815817   -1.805780    5.939523
     39          1           0       -1.828734   -3.983267    4.782403
     40          1           0       -2.898251   -4.233292    2.550088
     41          1           0       -2.883640    0.191304    4.905881
     42          6           0       -4.113578    0.052976    2.268586
     43          7           0       -3.985222    1.381555    2.252456
     44         17           0       -6.997849   -0.028252   -0.021038
     45          6           0        3.040435   -2.414302    2.462691
     46          6           0        1.602499   -2.559042    2.348738
     47          6           0        1.317712   -3.225126    1.092498
     48          6           0        2.579125   -3.491600    0.430081
     49          6           0        3.643551   -2.990730    1.277009
     50          6           0        4.759588   -2.397094    0.708300
     51          6           0        4.861924   -2.276173   -0.732561
     52          6           0        3.843880   -2.754375   -1.542479
     53          6           0        2.677201   -3.376098   -0.948296
     54          6           0        1.518203   -2.989521   -1.728605
     55          6           0        0.313102   -2.731881   -1.094866
     56          6           0        0.210140   -2.853292    0.346386
     57          6           0       -0.657833   -1.796230    0.821680
     58          6           0       -0.383438   -1.159137    2.018985
     59          6           0        0.767874   -1.550192    2.803519
     60          6           0        1.330611   -0.352511    3.395754
     61          6           0        0.519763    0.775955    2.981629
     62          6           0       -0.540281    0.275164    2.130591
     63          6           0       -0.958524    1.012891    1.036171
     64          6           0       -1.246951    0.348285   -0.218610
     65          6           0       -1.093666   -1.024520   -0.322668
     66          6           0       -0.492613   -1.601471   -1.506735
     67          6           0       -0.065890   -0.780129   -2.535968
     68          6           0        1.193882   -1.048251   -3.199179
     69          6           0        1.968797   -2.128027   -2.804771
     70          6           0        3.406425   -1.982747   -2.689277
     71          6           0        4.006731   -0.766313   -2.975093
     72          6           0        5.071419   -0.266035   -2.127753
     73          6           0        5.489384   -1.004077   -1.031630
     74          6           0        5.774190   -0.338419    0.223871
     75          6           0        5.628259    1.035967    0.328640
     76          6           0        5.190843    1.808081   -0.817554
     77          6           0        4.918856    1.171548   -2.018268
     78          6           0        3.759825    1.559376   -2.797700
     79          6           0        3.196179    0.361836   -3.388879
     80          6           0        1.821102    0.224008   -3.497850
     81          6           0        0.946342    1.277726   -3.021547
     82          6           0       -0.220748    0.656816   -2.427423
     83          6           0       -0.794525    1.208471   -1.294193
     84          6           0       -0.230997    2.404597   -0.703153
     85          6           0       -0.333082    2.284172    0.736882
     86          6           0        0.681738    2.764824    1.548305
     87          6           0        1.119309    1.992349    2.694862
     88          6           0        2.557217    2.136201    2.808958
     89          6           0        3.007702    2.996679    1.732425
     90          6           0        1.848275    3.385123    0.953525
     91          6           0        1.946512    3.500722   -0.424856
     92          6           0        0.882607    3.000787   -1.272359
     93          6           0        1.485845    2.423243   -2.457141
     94          6           0        2.923809    2.566667   -2.342148
     95          6           0        3.208288    3.232523   -1.086120
     96          6           0        4.316989    2.862084   -0.341024
     97          6           0        4.214166    2.741082    1.099862
     98          6           0        5.024586    1.612550    1.513507
     99          6           0        4.593829    0.789569    2.542064
    100          6           0        3.332409    1.057029    3.204354
    101          6           0        2.705550   -0.214940    3.504618
    102          6           0        3.579668   -1.268809    3.027241
    103          6           0        4.746595   -0.647874    2.432401
    104          6           0        5.323472   -1.199572    1.299254
 ---------------------------------------------------------------------

 SCF Done:  E(RwB97XD) =  -4020.57166872     A.U. after   17 cycles

 Excitation energies and oscillator strengths:

 Excited State   1:      Singlet-A      2.5207 eV  491.87 nm  f=0.2074  <S**2>=0.000
     282 -> 294       -0.11539
     290 -> 293        0.12515
     290 -> 294       -0.13944
     290 -> 295        0.65440
 This state for optimization and/or second-order correction.
 Total Energy, E(TD-HF/TD-KS) =  -4020.47903496
 Copying the excited state density for this state as the 1-particle RhoCI density.

 Excited State   2:      Singlet-A      2.5294 eV  490.17 nm  f=0.2161  <S**2>=0.000
     282 -> 295        0.11118
     290 -> 294        0.66525
     290 -> 295        0.13895

 Excited State   3:      Singlet-A      2.6650 eV  465.23 nm  f=0.0002  <S**2>=0.000
     285 -> 292        0.20150
     286 -> 291        0.23034
     286 -> 293       -0.10964
     287 -> 291        0.22138
     287 -> 293        0.11658
     288 -> 291       -0.12309
     288 -> 292       -0.18290
     289 -> 291        0.33429
     289 -> 292        0.19992
     289 -> 293       -0.26933

 Excited State   4:      Singlet-A      2.6664 eV  464.99 nm  f=0.0001  <S**2>=0.000
     285 -> 291        0.14859
     285 -> 292       -0.16310
     286 -> 291        0.15065
     286 -> 292        0.28569
     286 -> 293        0.11875
     287 -> 291        0.17647
     287 -> 292       -0.20458
     287 -> 293        0.23723
     288 -> 292       -0.16470
     289 -> 291       -0.26295
     289 -> 292       -0.14207
     289 -> 293       -0.17104

 Excited State   5:      Singlet-A      2.6734 eV  463.77 nm  f=0.0005  <S**2>=0.000
     285 -> 291       -0.31188
     285 -> 292        0.11296
     286 -> 291       -0.10751
     286 -> 292        0.13519
     286 -> 293        0.13190
     287 -> 292       -0.30407
     288 -> 293        0.38141
     289 -> 293        0.12812
     290 -> 291       -0.15261
     290 -> 292       -0.10300

 Excited State   6:      Singlet-A      2.7011 eV  459.01 nm  f=0.0014  <S**2>=0.000
     285 -> 292        0.19257
     286 -> 291       -0.13320
     286 -> 292       -0.14134
     287 -> 291        0.15984
     287 -> 293        0.11227
     288 -> 293        0.23430
     289 -> 291       -0.17800
     290 -> 291        0.41214
     290 -> 292        0.21618
     290 -> 293        0.10842
     290 -> 296       -0.10386
     290 -> 297       -0.11028

 Excited State   7:      Singlet-A      2.7239 eV  455.18 nm  f=0.0002  <S**2>=0.000
     285 -> 291        0.22074
     285 -> 292       -0.17553
     286 -> 291       -0.12039
     286 -> 293       -0.18411
     287 -> 291       -0.21628
     287 -> 292       -0.15264
     287 -> 293        0.14150
     288 -> 291        0.34668
     288 -> 292       -0.20892
     289 -> 291        0.14497
     289 -> 292        0.14692
     290 -> 293        0.14180

 Excited State   8:      Singlet-A      2.7296 eV  454.22 nm  f=0.0002  <S**2>=0.000
     285 -> 291        0.32950
     285 -> 292       -0.14897
     286 -> 292        0.16560
     286 -> 293        0.12521
     287 -> 292        0.10175
     287 -> 293       -0.14385
     288 -> 291       -0.21524
     288 -> 292        0.18187
     288 -> 293        0.28775
     289 -> 291        0.16732
     289 -> 292        0.24803

 Excited State   9:      Singlet-A      2.7357 eV  453.20 nm  f=0.0005  <S**2>=0.000
     286 -> 292       -0.27987
     287 -> 293        0.17424
     289 -> 291       -0.32847
     289 -> 292        0.36606
     290 -> 291       -0.25824
     290 -> 292       -0.12815

 Excited State  10:      Singlet-A      2.7624 eV  448.83 nm  f=0.0008  <S**2>=0.000
     285 -> 291       -0.10798
     285 -> 293        0.12278
     286 -> 291        0.10256
     286 -> 292        0.33276
     286 -> 293       -0.19800
     287 -> 292        0.24025
     287 -> 293        0.19500
     288 -> 291        0.12794
     288 -> 292        0.21088
     289 -> 293        0.14244
     290 -> 293        0.28392

 The electronic state is 1-A.
 Alpha  occ. eigenvalues -- -101.66444 -14.50399 -14.50384 -14.50377 -14.48303
 Alpha  occ. eigenvalues --  -14.48268 -14.48257 -10.39804 -10.39790 -10.39778
 Alpha  occ. eigenvalues --  -10.39753 -10.39741 -10.39738 -10.34592 -10.34584
 Alpha  occ. eigenvalues --  -10.34580 -10.34573 -10.34571 -10.34567 -10.34563
 Alpha  occ. eigenvalues --  -10.34560 -10.34556 -10.34555 -10.34554 -10.34550
 Alpha  occ. eigenvalues --  -10.34546 -10.34544 -10.34543 -10.34536 -10.34524
 Alpha  occ. eigenvalues --  -10.34517 -10.34516 -10.34511 -10.34510 -10.34508
 Alpha  occ. eigenvalues --  -10.34504 -10.34501 -10.34500 -10.34496 -10.34493
 Alpha  occ. eigenvalues --  -10.34490 -10.34489 -10.34487 -10.34484 -10.34481
 Alpha  occ. eigenvalues --  -10.34478 -10.34476 -10.34472 -10.34469 -10.34468
 Alpha  occ. eigenvalues --  -10.34468 -10.34463 -10.34460 -10.34451 -10.34446
 Alpha  occ. eigenvalues --  -10.34443 -10.34441 -10.34434 -10.34431 -10.34428
 Alpha  occ. eigenvalues --  -10.34425 -10.34414 -10.34412 -10.34397 -10.34391
 Alpha  occ. eigenvalues --  -10.34368 -10.34351 -10.34348 -10.34344 -10.34335
 Alpha  occ. eigenvalues --  -10.34317 -10.34316 -10.34288 -10.33188 -10.33174
 Alpha  occ. eigenvalues --  -10.33139 -10.33129 -10.33110 -10.33080 -10.32381
 Alpha  occ. eigenvalues --  -10.32378 -10.32362 -10.32356 -10.32344 -10.32302
 Alpha  occ. eigenvalues --  -10.32164 -10.32152 -10.32144 -10.32112 -10.32101
 Alpha  occ. eigenvalues --  -10.32091  -9.53799  -7.28388  -7.27810  -7.27810
 Alpha  occ. eigenvalues --   -6.91681  -1.16823  -1.12505  -1.12486  -1.07773
 Alpha  occ. eigenvalues --   -1.05768  -1.05740  -1.05732  -1.04540  -1.04524
 Alpha  occ. eigenvalues --   -1.01874  -1.01863  -1.01859  -1.01842  -1.01839
 Alpha  occ. eigenvalues --   -0.99919  -0.98178  -0.97754  -0.97730  -0.97713
 Alpha  occ. eigenvalues --   -0.97231  -0.97208  -0.94531  -0.94519  -0.94516
 Alpha  occ. eigenvalues --   -0.94511  -0.90424  -0.89277  -0.89266  -0.89262
 Alpha  occ. eigenvalues --   -0.89255  -0.89250  -0.88976  -0.87715  -0.87697
 Alpha  occ. eigenvalues --   -0.87565  -0.87559  -0.87557  -0.87542  -0.87517
 Alpha  occ. eigenvalues --   -0.87050  -0.87027  -0.83420  -0.81667  -0.81661
 Alpha  occ. eigenvalues --   -0.81657  -0.81648  -0.81646  -0.80198  -0.80193
 Alpha  occ. eigenvalues --   -0.80189  -0.79216  -0.79209  -0.77523  -0.75909
 Alpha  occ. eigenvalues --   -0.75899  -0.75895  -0.74527  -0.74505  -0.71995
 Alpha  occ. eigenvalues --   -0.71993  -0.71987  -0.71986  -0.71978  -0.71494
 Alpha  occ. eigenvalues --   -0.71484  -0.71477  -0.71281  -0.71273  -0.69572
 Alpha  occ. eigenvalues --   -0.69141  -0.68646  -0.68641  -0.68346  -0.64906
 Alpha  occ. eigenvalues --   -0.64888  -0.64759  -0.64738  -0.64732  -0.64727
 Alpha  occ. eigenvalues --   -0.62438  -0.62048  -0.62044  -0.62038  -0.62034
 Alpha  occ. eigenvalues --   -0.62029  -0.61074  -0.60443  -0.60439  -0.60437
 Alpha  occ. eigenvalues --   -0.60319  -0.59650  -0.59639  -0.58228  -0.58216
 Alpha  occ. eigenvalues --   -0.57891  -0.57886  -0.57876  -0.57681  -0.56792
 Alpha  occ. eigenvalues --   -0.55629  -0.55591  -0.55264  -0.55100  -0.55091
 Alpha  occ. eigenvalues --   -0.55087  -0.55080  -0.54746  -0.54740  -0.54693
 Alpha  occ. eigenvalues --   -0.53843  -0.53825  -0.53325  -0.53089  -0.53061
 Alpha  occ. eigenvalues --   -0.53030  -0.53024  -0.53021  -0.53015  -0.52991
 Alpha  occ. eigenvalues --   -0.52938  -0.51633  -0.51620  -0.51618  -0.51610
 Alpha  occ. eigenvalues --   -0.50654  -0.50629  -0.50538  -0.50526  -0.50506
 Alpha  occ. eigenvalues --   -0.50328  -0.50317  -0.50311  -0.48970  -0.48962
 Alpha  occ. eigenvalues --   -0.48405  -0.48398  -0.48394  -0.48389  -0.47939
 Alpha  occ. eigenvalues --   -0.47253  -0.47237  -0.46455  -0.46444  -0.45522
 Alpha  occ. eigenvalues --   -0.45421  -0.44735  -0.44444  -0.44365  -0.44134
 Alpha  occ. eigenvalues --   -0.43973  -0.43874  -0.43862  -0.43855  -0.43850
 Alpha  occ. eigenvalues --   -0.43848  -0.43784  -0.43195  -0.43033  -0.42623
 Alpha  occ. eigenvalues --   -0.42619  -0.42617  -0.42613  -0.42600  -0.42440
 Alpha  occ. eigenvalues --   -0.42384  -0.42231  -0.42047  -0.41453  -0.37473
 Alpha  occ. eigenvalues --   -0.37457  -0.37135  -0.36913  -0.36906  -0.35391
 Alpha  occ. eigenvalues --   -0.35043  -0.34781  -0.34630  -0.34581  -0.34463
 Alpha  occ. eigenvalues --   -0.34251  -0.34194  -0.34041  -0.33902  -0.33745
 Alpha  occ. eigenvalues --   -0.33651  -0.33378  -0.33117  -0.33043  -0.28596
 Alpha  occ. eigenvalues --   -0.28543  -0.28509  -0.28496  -0.28450  -0.25013
 Alpha virt. eigenvalues --   -0.06419  -0.06381  -0.06330  -0.04307  -0.04290
 Alpha virt. eigenvalues --   -0.01339  -0.01305  -0.01212   0.03090   0.03163
 Alpha virt. eigenvalues --    0.03233   0.03252   0.03278   0.03345   0.03544

 Mulliken charges:
               1
     1  C   -0.171180
     2  C   -0.171953
     3  C   -0.201444
     4  C    0.032839
     5  C   -0.202704
     6  C    0.028873
     7  C    0.441843
     8  N   -0.553321
     9  H    0.180472
    10  H    0.180326
    11  H    0.198515
    12  H    0.198419
    13  C    0.436636
    14  N   -0.496455
    15  C   -0.170893
    16  C   -0.171768
    17  C   -0.201315
    18  C    0.030178
    19  C   -0.201642
    20  C    0.029489
    21  C    0.438298
    22  N   -0.555384
    23  H    0.180312
    24  H    0.180358
    25  H    0.198438
    26  H    0.198502
    27  B    0.531970
    28  C    0.440205
    29  N   -0.497873
    30  C   -0.173724
    31  C   -0.171416
    32  C   -0.201981
    33  C    0.032157
    34  C   -0.203450
    35  C    0.030062
    36  C    0.439137
    37  N   -0.555917
    38  H    0.180338
    39  H    0.180188
    40  H    0.198034
    41  H    0.198611
    42  C    0.441620
    43  N   -0.495728
    44  Cl  -0.201235
    45  C   -0.001194
    46  C   -0.004975
    47  C   -0.002895
    48  C   -0.000908
    49  C   -0.001000
    50  C   -0.000640
    51  C   -0.000766
    52  C   -0.000750
    53  C   -0.000765
    54  C   -0.004366
    55  C   -0.002311
    56  C   -0.005981
    57  C    0.011070
    58  C    0.016155
    59  C    0.002513
    60  C   -0.005588
    61  C   -0.005068
    62  C    0.003273
    63  C    0.000302
    64  C   -0.011634
    65  C   -0.014953
    66  C    0.013687
    67  C    0.012408
    68  C   -0.005178
    69  C   -0.002456
    70  C   -0.001144
    71  C   -0.000643
    72  C   -0.000803
    73  C   -0.000413
    74  C   -0.000432
    75  C   -0.000382
    76  C   -0.000471
    77  C   -0.000592
    78  C   -0.000901
    79  C   -0.001515
    80  C   -0.002887
    81  C   -0.004401
    82  C   -0.004201
    83  C    0.011977
    84  C    0.017812
    85  C    0.017544
    86  C   -0.011746
    87  C   -0.002080
    88  C   -0.001356
    89  C   -0.001214
    90  C   -0.001798
    91  C   -0.001743
    92  C   -0.010661
    93  C   -0.002552
    94  C   -0.000996
    95  C   -0.001153
    96  C   -0.001222
    97  C   -0.000902
    98  C   -0.000496
    99  C   -0.000675
   100  C   -0.000711
   101  C   -0.001555
   102  C   -0.000876
   103  C   -0.000514
   104  C   -0.000718
 Sum of Mulliken charges =   0.00000

 Dipole moment (field-independent basis, Debye):
    X=              4.1104    Y=              0.0489    Z=             -0.0022  Tot=              4.1107
 Quadrupole moment (field-independent basis, Debye-Ang):
   XX=           -559.9880   YY=           -483.7274   ZZ=           -484.1983
   XY=             -0.5502   XZ=             -0.0990   YZ=              0.0993

 Normal termination of Gaussian 09 at Thu Aug  2 11:46:49 2018.
