 Gaussian 09, Revision D.01,
 Gaussian 09:  ES64L-G09RevD.01 24-Apr-2013

 ----------------------------------------------------------------------
 #p td CAM-B3LYP/6-31g* TD=(singlets,root=1,nstates=20) SCRF=(PCM,read)
  units=(ang,deg)
 ----------------------------------------------------------------------

 ---------
 SubPc-C60
 ---------
 Symbolic Z-matrix:
 Charge =  0 Multiplicity = 1

                         Standard orientation:
 ---------------------------------------------------------------------
 Center     Atomic      Atomic             Coordinates (Angstroms)
 Number     Number       Type             X           Y           Z
 ---------------------------------------------------------------------
      1          6           0       -2.274508   -3.377063   -4.125801
      2          6           0       -2.263053   -2.176926   -4.857772
      3          6           0       -2.862802   -1.028400   -4.364501
      4          6           0       -3.499115   -1.102110   -3.126404
      5          6           0       -2.882960   -3.455724   -2.882831
      6          6           0       -3.508892   -2.312701   -2.386370
      7          6           0       -4.084811   -0.076619   -2.279894
      8          7           0       -4.526754   -0.727402   -1.167380
      9          1           0       -1.785971   -4.253872   -4.539092
     10          1           0       -1.764636   -2.148866   -5.821605
     11          1           0       -2.832007   -0.091627   -4.910642
     12          1           0       -2.867978   -4.371314   -2.301162
     13          6           0       -4.094484   -2.017803   -1.089182
     14          7           0       -3.961881   -2.665579    0.070485
     15          6           0       -2.371410    5.281630   -0.851460
     16          6           0       -2.379280    5.322023    0.553886
     17          6           0       -2.960177    4.307426    1.298559
     18          6           0       -3.561290    3.252658    0.613032
     19          6           0       -2.944894    4.226267   -1.543315
     20          6           0       -3.553956    3.212454   -0.805311
     21          6           0       -4.123471    1.994237    1.075231
     22          7           0       -4.543935    1.346366   -0.047835
     23          1           0       -1.895073    6.087256   -1.401311
     24          1           0       -1.909632    6.158443    1.061923
     25          1           0       -2.941882    4.318032    2.383175
     26          1           0       -2.914117    4.173662   -2.626437
     27          5           0       -5.140800   -0.017002   -0.012185
     28          6           0       -4.111764    1.929946   -1.201203
     29          7           0       -3.958470    1.250980   -2.339371
     30          6           0       -2.310268   -1.891396    4.977009
     31          6           0       -2.317412   -3.133315    4.316477
     32          6           0       -2.919605   -3.285852    3.077934
     33          6           0       -3.541645   -2.174173    2.510303
     34          6           0       -2.910472   -0.775822    4.415263
     35          6           0       -3.539829   -0.923162    3.179374
     36          6           0       -4.107319   -1.952956    1.189853
     37          7           0       -4.538028   -0.659633    1.187425
     38          1           0       -1.815817   -1.805780    5.939523
     39          1           0       -1.828734   -3.983267    4.782403
     40          1           0       -2.898251   -4.233292    2.550088
     41          1           0       -2.883640    0.191304    4.905881
     42          6           0       -4.113578    0.052976    2.268586
     43          7           0       -3.985222    1.381555    2.252456
     44         17           0       -6.997849   -0.028252   -0.021038
     45          6           0        3.040435   -2.414302    2.462691
     46          6           0        1.602499   -2.559042    2.348738
     47          6           0        1.317712   -3.225126    1.092498
     48          6           0        2.579125   -3.491600    0.430081
     49          6           0        3.643551   -2.990730    1.277009
     50          6           0        4.759588   -2.397094    0.708300
     51          6           0        4.861924   -2.276173   -0.732561
     52          6           0        3.843880   -2.754375   -1.542479
     53          6           0        2.677201   -3.376098   -0.948296
     54          6           0        1.518203   -2.989521   -1.728605
     55          6           0        0.313102   -2.731881   -1.094866
     56          6           0        0.210140   -2.853292    0.346386
     57          6           0       -0.657833   -1.796230    0.821680
     58          6           0       -0.383438   -1.159137    2.018985
     59          6           0        0.767874   -1.550192    2.803519
     60          6           0        1.330611   -0.352511    3.395754
     61          6           0        0.519763    0.775955    2.981629
     62          6           0       -0.540281    0.275164    2.130591
     63          6           0       -0.958524    1.012891    1.036171
     64          6           0       -1.246951    0.348285   -0.218610
     65          6           0       -1.093666   -1.024520   -0.322668
     66          6           0       -0.492613   -1.601471   -1.506735
     67          6           0       -0.065890   -0.780129   -2.535968
     68          6           0        1.193882   -1.048251   -3.199179
     69          6           0        1.968797   -2.128027   -2.804771
     70          6           0        3.406425   -1.982747   -2.689277
     71          6           0        4.006731   -0.766313   -2.975093
     72          6           0        5.071419   -0.266035   -2.127753
     73          6           0        5.489384   -1.004077   -1.031630
     74          6           0        5.774190   -0.338419    0.223871
     75          6           0        5.628259    1.035967    0.328640
     76          6           0        5.190843    1.808081   -0.817554
     77          6           0        4.918856    1.171548   -2.018268
     78          6           0        3.759825    1.559376   -2.797700
     79          6           0        3.196179    0.361836   -3.388879
     80          6           0        1.821102    0.224008   -3.497850
     81          6           0        0.946342    1.277726   -3.021547
     82          6           0       -0.220748    0.656816   -2.427423
     83          6           0       -0.794525    1.208471   -1.294193
     84          6           0       -0.230997    2.404597   -0.703153
     85          6           0       -0.333082    2.284172    0.736882
     86          6           0        0.681738    2.764824    1.548305
     87          6           0        1.119309    1.992349    2.694862
     88          6           0        2.557217    2.136201    2.808958
     89          6           0        3.007702    2.996679    1.732425
     90          6           0        1.848275    3.385123    0.953525
     91          6           0        1.946512    3.500722   -0.424856
     92          6           0        0.882607    3.000787   -1.272359
     93          6           0        1.485845    2.423243   -2.457141
     94          6           0        2.923809    2.566667   -2.342148
     95          6           0        3.208288    3.232523   -1.086120
     96          6           0        4.316989    2.862084   -0.341024
     97          6           0        4.214166    2.741082    1.099862
     98          6           0        5.024586    1.612550    1.513507
     99          6           0        4.593829    0.789569    2.542064
    100          6           0        3.332409    1.057029    3.204354
    101          6           0        2.705550   -0.214940    3.504618
    102          6           0        3.579668   -1.268809    3.027241
    103          6           0        4.746595   -0.647874    2.432401
    104          6           0        5.323472   -1.199572    1.299254
 ---------------------------------------------------------------------

 SCF Done:  E(RCAM-B3LYP) =  -4019.78561184     A.U. after   14 cycles

 Excitation energies and oscillator strengths:

 Excited State   1:      Singlet-A      2.5932 eV  478.12 nm  f=0.0146  <S**2>=0.000
     287 -> 292       -0.10809
     290 -> 291        0.60461
     290 -> 292       -0.22849
     290 -> 296        0.11193
 This state for optimization and/or second-order correction.
 Total Energy, E(CIS) =  -4019.69031440
 Copying the excited state density for this state as the 1-particle RhoCI density.

 Excited State   2:      Singlet-A      2.6204 eV  473.15 nm  f=0.0669  <S**2>=0.000
     287 -> 293        0.16783
     288 -> 293       -0.12371
     289 -> 293       -0.10133
     290 -> 293        0.55979
     290 -> 295        0.24363
     290 -> 298        0.11220

 Excited State   3:      Singlet-A      2.6467 eV  468.44 nm  f=0.0051  <S**2>=0.000
     285 -> 291       -0.10288
     285 -> 292       -0.25668
     286 -> 292       -0.21541
     286 -> 293        0.16975
     287 -> 292       -0.22765
     289 -> 291        0.43251
     289 -> 292       -0.21952
     290 -> 292       -0.14922

 Excited State   4:      Singlet-A      2.6551 eV  466.97 nm  f=0.0340  <S**2>=0.000
     285 -> 291       -0.14970
     286 -> 291        0.37113
     286 -> 292       -0.10227
     287 -> 291       -0.19603
     287 -> 293       -0.16285
     288 -> 291       -0.18889
     288 -> 292        0.20492
     289 -> 293        0.29881
     290 -> 293        0.12662
     290 -> 295        0.18123

 Excited State   5:      Singlet-A      2.6633 eV  465.53 nm  f=0.0240  <S**2>=0.000
     285 -> 291        0.28231
     285 -> 292        0.17891
     287 -> 292       -0.31016
     288 -> 293        0.43068
     289 -> 291       -0.13652
     290 -> 291       -0.10581
     290 -> 295        0.15184

 Excited State   6:      Singlet-A      2.6821 eV  462.27 nm  f=0.0255  <S**2>=0.000
     285 -> 291        0.21688
     285 -> 292        0.22940
     286 -> 291        0.13349
     286 -> 292        0.10800
     286 -> 293        0.13075
     287 -> 291       -0.28590
     288 -> 291       -0.20535
     288 -> 292       -0.12526
     289 -> 291        0.33070
     290 -> 291        0.10061
     290 -> 292        0.16508
     290 -> 295       -0.14595

 Excited State   7:      Singlet-A      2.6947 eV  460.11 nm  f=0.0341  <S**2>=0.000
     285 -> 291        0.25141
     285 -> 292        0.10811
     286 -> 292        0.17625
     286 -> 293       -0.10396
     287 -> 293       -0.20188
     288 -> 291        0.28063
     288 -> 292        0.27314
     288 -> 293       -0.25143
     289 -> 292       -0.18345
     290 -> 294       -0.18755

 Excited State   8:      Singlet-A      2.6952 eV  460.02 nm  f=0.0170  <S**2>=0.000
     286 -> 292        0.24464
     287 -> 292        0.12502
     287 -> 293       -0.15994
     288 -> 292        0.14268
     288 -> 293        0.17900
     289 -> 291        0.23898
     289 -> 292        0.45237
     290 -> 295        0.13051

 Excited State   9:      Singlet-A      2.6998 eV  459.23 nm  f=0.3550  <S**2>=0.000
     285 -> 291        0.10888
     286 -> 293       -0.12852
     288 -> 292        0.10111
     290 -> 294        0.60712
     290 -> 295        0.13597

 Excited State  10:      Singlet-A      2.7106 eV  457.41 nm  f=0.1111  <S**2>=0.000
     285 -> 291        0.19468
     286 -> 291        0.17541
     286 -> 292       -0.23961
     287 -> 292        0.13470
     288 -> 292       -0.23601
     288 -> 293       -0.14797
     289 -> 293       -0.17800
     290 -> 292       -0.10864
     290 -> 293       -0.19977
     290 -> 294       -0.11143
     290 -> 295        0.33592

 Excited State  11:      Singlet-A      2.7190 eV  455.99 nm  f=0.0446  <S**2>=0.000
     285 -> 291        0.24925
     285 -> 292       -0.22111
     286 -> 291        0.20213
     286 -> 292       -0.16918
     286 -> 293       -0.14430
     287 -> 293        0.32234
     288 -> 291        0.13687
     288 -> 292        0.11105
     289 -> 292        0.23159
     290 -> 295       -0.21801

 Excited State  12:      Singlet-A      2.7239 eV  455.18 nm  f=0.0177  <S**2>=0.000
     285 -> 291        0.13597
     285 -> 293        0.12243
     286 -> 291        0.16785
     286 -> 293        0.22582
     287 -> 291        0.32664
     287 -> 292       -0.23409
     287 -> 293       -0.21282
     288 -> 291       -0.13984
     288 -> 292       -0.10423
     288 -> 293       -0.18474
     289 -> 292        0.17701
     290 -> 291       -0.10405
     290 -> 292        0.11252
     290 -> 295       -0.11844

 Excited State  13:      Singlet-A      2.7319 eV  453.85 nm  f=0.0399  <S**2>=0.000
     285 -> 291        0.10678
     285 -> 292       -0.10314
     285 -> 293        0.15285
     286 -> 292        0.30381
     287 -> 293        0.34491
     288 -> 291       -0.24499
     290 -> 292       -0.19798
     290 -> 293       -0.21004
     290 -> 295        0.18343

 Excited State  14:      Singlet-A      2.7325 eV  453.74 nm  f=0.0039  <S**2>=0.000
     285 -> 291        0.11037
     285 -> 292       -0.11761
     285 -> 293        0.44905
     286 -> 293       -0.37459
     287 -> 293       -0.14966
     288 -> 291       -0.13878
     288 -> 292       -0.14056
     288 -> 293        0.13213

 Excited State  15:      Singlet-A      2.7982 eV  443.08 nm  f=0.0415  <S**2>=0.000
     285 -> 292       -0.14466
     288 -> 292        0.10472
     290 -> 291        0.21963
     290 -> 292        0.54670
     290 -> 293       -0.18767
     290 -> 295        0.22554

 Excited State  16:      Singlet-A      3.0480 eV  406.78 nm  f=0.0012  <S**2>=0.000
     287 -> 291        0.42215
     287 -> 292        0.28404
     288 -> 291       -0.24730
     288 -> 292        0.23211
     288 -> 293        0.18087
     289 -> 291        0.12155
     289 -> 292       -0.14952

 Excited State  17:      Singlet-A      3.0492 eV  406.62 nm  f=0.0002  <S**2>=0.000
     285 -> 291       -0.12047
     285 -> 293        0.13843
     286 -> 291        0.38591
     286 -> 292        0.24297
     287 -> 291        0.12055
     288 -> 291        0.31073
     288 -> 292       -0.20037
     288 -> 293        0.20941
     289 -> 292       -0.17553

 Excited State  18:      Singlet-A      3.0560 eV  405.70 nm  f=0.0023  <S**2>=0.000
     285 -> 292        0.20814
     286 -> 291       -0.18003
     287 -> 291        0.17579
     288 -> 292       -0.24333
     289 -> 291        0.12792
     289 -> 292        0.15180
     289 -> 293        0.49768

 Excited State  19:      Singlet-A      3.0605 eV  405.11 nm  f=0.0008  <S**2>=0.000
     285 -> 291       -0.25779
     285 -> 292        0.32424
     286 -> 291        0.10315
     286 -> 293       -0.27004
     287 -> 292       -0.27473
     287 -> 293        0.16006
     288 -> 292        0.10146
     289 -> 291        0.16820
     289 -> 292        0.10381
     289 -> 293       -0.23040

 Excited State  20:      Singlet-A      3.0731 eV  403.45 nm  f=0.0004  <S**2>=0.000
     285 -> 292        0.21671
     285 -> 293        0.43334
     286 -> 292       -0.23154
     286 -> 293        0.30183
     287 -> 292        0.15128
     287 -> 293        0.12840
     288 -> 291        0.14414
     288 -> 292        0.17009

 The electronic state is 1-A.
 Alpha  occ. eigenvalues -- -101.57838 -14.45771 -14.45755 -14.45749 -14.43802
 Alpha  occ. eigenvalues --  -14.43774 -14.43761 -10.35933 -10.35920 -10.35907
 Alpha  occ. eigenvalues --  -10.35882 -10.35872 -10.35866 -10.30041 -10.30033
 Alpha  occ. eigenvalues --  -10.30029 -10.30023 -10.30021 -10.30017 -10.30014
 Alpha  occ. eigenvalues --  -10.30010 -10.30008 -10.30005 -10.30005 -10.30001
 Alpha  occ. eigenvalues --  -10.29998 -10.29998 -10.29994 -10.29989 -10.29985
 Alpha  occ. eigenvalues --  -10.29977 -10.29974 -10.29969 -10.29964 -10.29962
 Alpha  occ. eigenvalues --  -10.29961 -10.29958 -10.29954 -10.29952 -10.29947
 Alpha  occ. eigenvalues --  -10.29946 -10.29944 -10.29942 -10.29940 -10.29938
 Alpha  occ. eigenvalues --  -10.29936 -10.29933 -10.29930 -10.29929 -10.29926
 Alpha  occ. eigenvalues --  -10.29923 -10.29921 -10.29917 -10.29916 -10.29913
 Alpha  occ. eigenvalues --  -10.29911 -10.29904 -10.29902 -10.29900 -10.29894
 Alpha  occ. eigenvalues --  -10.29886 -10.29883 -10.29878 -10.29871 -10.29865
 Alpha  occ. eigenvalues --  -10.29849 -10.29832 -10.29823 -10.29820 -10.29814
 Alpha  occ. eigenvalues --  -10.29803 -10.29788 -10.29768 -10.28987 -10.28966
 Alpha  occ. eigenvalues --  -10.28939 -10.28929 -10.28902 -10.28881 -10.28124
 Alpha  occ. eigenvalues --  -10.28119 -10.28116 -10.28110 -10.28093 -10.28052
 Alpha  occ. eigenvalues --  -10.27822 -10.27822 -10.27810 -10.27772 -10.27770
 Alpha  occ. eigenvalues --  -10.27758  -9.49779  -7.25978  -7.25419  -7.25419
 Alpha  occ. eigenvalues --   -6.89123  -1.14993  -1.10623  -1.10606  -1.05414
 Alpha  occ. eigenvalues --   -1.03410  -1.03365  -1.03357  -1.02642  -1.02624
 Alpha  occ. eigenvalues --   -0.99490  -0.99476  -0.99471  -0.99443  -0.99439
 Alpha  occ. eigenvalues --   -0.98027  -0.96136  -0.95360  -0.95302  -0.95262
 Alpha  occ. eigenvalues --   -0.95112  -0.95078  -0.92152  -0.92138  -0.92130
 Alpha  occ. eigenvalues --   -0.92117  -0.89000  -0.86976  -0.86816  -0.86811
 Alpha  occ. eigenvalues --   -0.86802  -0.86799  -0.86775  -0.86335  -0.85580
 Alpha  occ. eigenvalues --   -0.85568  -0.85139  -0.85123  -0.85115  -0.85103
 Alpha  occ. eigenvalues --   -0.84859  -0.84837  -0.81308  -0.79171  -0.79159
 Alpha  occ. eigenvalues --   -0.79157  -0.79151  -0.79150  -0.77723  -0.77716
 Alpha  occ. eigenvalues --   -0.77713  -0.77216  -0.77210  -0.75453  -0.73455
 Alpha  occ. eigenvalues --   -0.73442  -0.73437  -0.72365  -0.72343  -0.69497
 Alpha  occ. eigenvalues --   -0.69491  -0.69486  -0.69478  -0.69474  -0.69144
 Alpha  occ. eigenvalues --   -0.69130  -0.68978  -0.68974  -0.68961  -0.67366
 Alpha  occ. eigenvalues --   -0.66730  -0.66728  -0.66642  -0.66206  -0.62762
 Alpha  occ. eigenvalues --   -0.62750  -0.62257  -0.62227  -0.62224  -0.62221
 Alpha  occ. eigenvalues --   -0.60362  -0.59546  -0.59544  -0.59536  -0.59533
 Alpha  occ. eigenvalues --   -0.59529  -0.59212  -0.58550  -0.57969  -0.57961
 Alpha  occ. eigenvalues --   -0.57959  -0.57431  -0.57418  -0.56145  -0.56134
 Alpha  occ. eigenvalues --   -0.55399  -0.55386  -0.55377  -0.55342  -0.54574
 Alpha  occ. eigenvalues --   -0.53384  -0.53321  -0.52889  -0.52626  -0.52621
 Alpha  occ. eigenvalues --   -0.52605  -0.52586  -0.52574  -0.52539  -0.52506
 Alpha  occ. eigenvalues --   -0.51644  -0.51631  -0.51193  -0.50991  -0.50969
 Alpha  occ. eigenvalues --   -0.50796  -0.50624  -0.50621  -0.50620  -0.50608
 Alpha  occ. eigenvalues --   -0.50595  -0.49203  -0.49189  -0.49187  -0.49179
 Alpha  occ. eigenvalues --   -0.48171  -0.48148  -0.48035  -0.47967  -0.47964
 Alpha  occ. eigenvalues --   -0.47860  -0.47852  -0.47842  -0.46943  -0.46935
 Alpha  occ. eigenvalues --   -0.46223  -0.46050  -0.46048  -0.46039  -0.46035
 Alpha  occ. eigenvalues --   -0.45075  -0.45056  -0.44192  -0.44183  -0.43598
 Alpha  occ. eigenvalues --   -0.43322  -0.42515  -0.42048  -0.41950  -0.41581
 Alpha  occ. eigenvalues --   -0.41511  -0.41468  -0.41457  -0.41447  -0.41439
 Alpha  occ. eigenvalues --   -0.41436  -0.41426  -0.40972  -0.40766  -0.40247
 Alpha  occ. eigenvalues --   -0.40243  -0.40238  -0.40236  -0.40229  -0.39829
 Alpha  occ. eigenvalues --   -0.39760  -0.39693  -0.39500  -0.39420  -0.36344
 Alpha  occ. eigenvalues --   -0.36342  -0.35416  -0.35406  -0.34723  -0.33555
 Alpha  occ. eigenvalues --   -0.32561  -0.32342  -0.32061  -0.31944  -0.31816
 Alpha  occ. eigenvalues --   -0.31773  -0.31644  -0.31496  -0.31375  -0.31249
 Alpha  occ. eigenvalues --   -0.31199  -0.31093  -0.30804  -0.30730  -0.26055
 Alpha  occ. eigenvalues --   -0.26016  -0.25984  -0.25973  -0.25934  -0.23026
 Alpha virt. eigenvalues --   -0.07904  -0.07856  -0.07815  -0.06269  -0.06253
 Alpha virt. eigenvalues --   -0.02925  -0.02890  -0.02800   0.01207   0.01258
 Alpha virt. eigenvalues --    0.01383   0.01656   0.01682   0.01694   0.01920

 Mulliken charges:
               1
     1  C   -0.144742
     2  C   -0.145184
     3  C   -0.186077
     4  C    0.058048
     5  C   -0.186897
     6  C    0.053461
     7  C    0.416162
     8  N   -0.536141
     9  H    0.161264
    10  H    0.161161
    11  H    0.171957
    12  H    0.171978
    13  C    0.410485
    14  N   -0.494768
    15  C   -0.144595
    16  C   -0.145550
    17  C   -0.185778
    18  C    0.054721
    19  C   -0.186328
    20  C    0.054401
    21  C    0.412662
    22  N   -0.538272
    23  H    0.161267
    24  H    0.161356
    25  H    0.171871
    26  H    0.171937
    27  B    0.551608
    28  C    0.414704
    29  N   -0.496723
    30  C   -0.146690
    31  C   -0.145274
    32  C   -0.186126
    33  C    0.055868
    34  C   -0.187453
    35  C    0.053905
    36  C    0.413907
    37  N   -0.539180
    38  H    0.161176
    39  H    0.160971
    40  H    0.171498
    41  H    0.171996
    42  C    0.416547
    43  N   -0.494788
    44  Cl  -0.250325
    45  C   -0.000882
    46  C   -0.003786
    47  C   -0.002053
    48  C   -0.000653
    49  C   -0.000875
    50  C   -0.000644
    51  C   -0.000678
    52  C   -0.000564
    53  C   -0.000506
    54  C   -0.003619
    55  C   -0.002616
    56  C   -0.006872
    57  C    0.008580
    58  C    0.017469
    59  C    0.001026
    60  C   -0.004315
    61  C   -0.005111
    62  C    0.001696
    63  C   -0.001114
    64  C   -0.012589
    65  C   -0.015509
    66  C    0.013508
    67  C    0.014313
    68  C   -0.005965
    69  C   -0.001539
    70  C   -0.001082
    71  C   -0.000562
    72  C   -0.000688
    73  C   -0.000453
    74  C   -0.000383
    75  C   -0.000289
    76  C   -0.000463
    77  C   -0.000631
    78  C   -0.000802
    79  C   -0.001318
    80  C   -0.001894
    81  C   -0.003332
    82  C   -0.006361
    83  C    0.009842
    84  C    0.019200
    85  C    0.018116
    86  C   -0.012469
    87  C   -0.001346
    88  C   -0.001134
    89  C   -0.001065
    90  C   -0.001025
    91  C   -0.000969
    92  C   -0.011560
    93  C   -0.001700
    94  C   -0.000830
    95  C   -0.000983
    96  C   -0.001163
    97  C   -0.000928
    98  C   -0.000356
    99  C   -0.000645
   100  C   -0.000539
   101  C   -0.001148
   102  C   -0.000618
   103  C   -0.000490
   104  C   -0.000655
 Sum of Mulliken charges =   0.00000

 Dipole moment (field-independent basis, Debye):
    X=              5.2554    Y=              0.0398    Z=             -0.0022  Tot=              5.2555
 Quadrupole moment (field-independent basis, Debye-Ang):
   XX=           -567.1955   YY=           -480.4976   ZZ=           -480.9136
   XY=             -0.6201   XZ=             -0.0872   YZ=              0.1190

 Normal termination of Gaussian 09 at Mon Aug  6 13:17:41 2018.
