 Gaussian 09, Revision D.01,
 Gaussian 09:  ES64L-G09RevD.01 24-Apr-2013

 ----------------------------------------------------------------------
 #p LC-wPBE/6-31g* TD=(singlets,root=1,nstates=3) SCRF=(PCM,read) units
 =(ang,deg)
 ----------------------------------------------------------------------

 ---------
 SubPc-C60
 ---------
 Symbolic Z-matrix:
 Charge =  0 Multiplicity = 1

                         Standard orientation:
 ---------------------------------------------------------------------
 Center     Atomic      Atomic             Coordinates (Angstroms)
 Number     Number       Type             X           Y           Z
 ---------------------------------------------------------------------
      1          6           0       -2.274508   -3.377063   -4.125801
      2          6           0       -2.263053   -2.176926   -4.857772
      3          6           0       -2.862802   -1.028400   -4.364501
      4          6           0       -3.499115   -1.102110   -3.126404
      5          6           0       -2.882960   -3.455724   -2.882831
      6          6           0       -3.508892   -2.312701   -2.386370
      7          6           0       -4.084811   -0.076619   -2.279894
      8          7           0       -4.526754   -0.727402   -1.167380
      9          1           0       -1.785971   -4.253872   -4.539092
     10          1           0       -1.764636   -2.148866   -5.821605
     11          1           0       -2.832007   -0.091627   -4.910642
     12          1           0       -2.867978   -4.371314   -2.301162
     13          6           0       -4.094484   -2.017803   -1.089182
     14          7           0       -3.961881   -2.665579    0.070485
     15          6           0       -2.371410    5.281630   -0.851460
     16          6           0       -2.379280    5.322023    0.553886
     17          6           0       -2.960177    4.307426    1.298559
     18          6           0       -3.561290    3.252658    0.613032
     19          6           0       -2.944894    4.226267   -1.543315
     20          6           0       -3.553956    3.212454   -0.805311
     21          6           0       -4.123471    1.994237    1.075231
     22          7           0       -4.543935    1.346366   -0.047835
     23          1           0       -1.895073    6.087256   -1.401311
     24          1           0       -1.909632    6.158443    1.061923
     25          1           0       -2.941882    4.318032    2.383175
     26          1           0       -2.914117    4.173662   -2.626437
     27          5           0       -5.140800   -0.017002   -0.012185
     28          6           0       -4.111764    1.929946   -1.201203
     29          7           0       -3.958470    1.250980   -2.339371
     30          6           0       -2.310268   -1.891396    4.977009
     31          6           0       -2.317412   -3.133315    4.316477
     32          6           0       -2.919605   -3.285852    3.077934
     33          6           0       -3.541645   -2.174173    2.510303
     34          6           0       -2.910472   -0.775822    4.415263
     35          6           0       -3.539829   -0.923162    3.179374
     36          6           0       -4.107319   -1.952956    1.189853
     37          7           0       -4.538028   -0.659633    1.187425
     38          1           0       -1.815817   -1.805780    5.939523
     39          1           0       -1.828734   -3.983267    4.782403
     40          1           0       -2.898251   -4.233292    2.550088
     41          1           0       -2.883640    0.191304    4.905881
     42          6           0       -4.113578    0.052976    2.268586
     43          7           0       -3.985222    1.381555    2.252456
     44         17           0       -6.997849   -0.028252   -0.021038
     45          6           0        3.040435   -2.414302    2.462691
     46          6           0        1.602499   -2.559042    2.348738
     47          6           0        1.317712   -3.225126    1.092498
     48          6           0        2.579125   -3.491600    0.430081
     49          6           0        3.643551   -2.990730    1.277009
     50          6           0        4.759588   -2.397094    0.708300
     51          6           0        4.861924   -2.276173   -0.732561
     52          6           0        3.843880   -2.754375   -1.542479
     53          6           0        2.677201   -3.376098   -0.948296
     54          6           0        1.518203   -2.989521   -1.728605
     55          6           0        0.313102   -2.731881   -1.094866
     56          6           0        0.210140   -2.853292    0.346386
     57          6           0       -0.657833   -1.796230    0.821680
     58          6           0       -0.383438   -1.159137    2.018985
     59          6           0        0.767874   -1.550192    2.803519
     60          6           0        1.330611   -0.352511    3.395754
     61          6           0        0.519763    0.775955    2.981629
     62          6           0       -0.540281    0.275164    2.130591
     63          6           0       -0.958524    1.012891    1.036171
     64          6           0       -1.246951    0.348285   -0.218610
     65          6           0       -1.093666   -1.024520   -0.322668
     66          6           0       -0.492613   -1.601471   -1.506735
     67          6           0       -0.065890   -0.780129   -2.535968
     68          6           0        1.193882   -1.048251   -3.199179
     69          6           0        1.968797   -2.128027   -2.804771
     70          6           0        3.406425   -1.982747   -2.689277
     71          6           0        4.006731   -0.766313   -2.975093
     72          6           0        5.071419   -0.266035   -2.127753
     73          6           0        5.489384   -1.004077   -1.031630
     74          6           0        5.774190   -0.338419    0.223871
     75          6           0        5.628259    1.035967    0.328640
     76          6           0        5.190843    1.808081   -0.817554
     77          6           0        4.918856    1.171548   -2.018268
     78          6           0        3.759825    1.559376   -2.797700
     79          6           0        3.196179    0.361836   -3.388879
     80          6           0        1.821102    0.224008   -3.497850
     81          6           0        0.946342    1.277726   -3.021547
     82          6           0       -0.220748    0.656816   -2.427423
     83          6           0       -0.794525    1.208471   -1.294193
     84          6           0       -0.230997    2.404597   -0.703153
     85          6           0       -0.333082    2.284172    0.736882
     86          6           0        0.681738    2.764824    1.548305
     87          6           0        1.119309    1.992349    2.694862
     88          6           0        2.557217    2.136201    2.808958
     89          6           0        3.007702    2.996679    1.732425
     90          6           0        1.848275    3.385123    0.953525
     91          6           0        1.946512    3.500722   -0.424856
     92          6           0        0.882607    3.000787   -1.272359
     93          6           0        1.485845    2.423243   -2.457141
     94          6           0        2.923809    2.566667   -2.342148
     95          6           0        3.208288    3.232523   -1.086120
     96          6           0        4.316989    2.862084   -0.341024
     97          6           0        4.214166    2.741082    1.099862
     98          6           0        5.024586    1.612550    1.513507
     99          6           0        4.593829    0.789569    2.542064
    100          6           0        3.332409    1.057029    3.204354
    101          6           0        2.705550   -0.214940    3.504618
    102          6           0        3.579668   -1.268809    3.027241
    103          6           0        4.746595   -0.647874    2.432401
    104          6           0        5.323472   -1.199572    1.299254
 ---------------------------------------------------------------------

 SCF Done:  E(RLC-wPBE) =  -4018.87958126     A.U. after   15 cycles

 Excitation energies and oscillator strengths:

 Excited State   1:      Singlet-A      2.4011 eV  516.36 nm  f=0.2892  <S**2>=0.000
     290 -> 294       -0.13124
     290 -> 295        0.66822
 This state for optimization and/or second-order correction.
 Total Energy, E(TD-HF/TD-KS) =  -4018.79134103
 Copying the excited state density for this state as the 1-particle RhoCI density.

 Excited State   2:      Singlet-A      2.4050 eV  515.54 nm  f=0.2944  <S**2>=0.000
     290 -> 294        0.67198
     290 -> 295        0.13049

 Excited State   3:      Singlet-A      2.9407 eV  421.61 nm  f=0.0000  <S**2>=0.000
     285 -> 292        0.11047
     286 -> 291        0.33819
     287 -> 291       -0.24832
     287 -> 293       -0.20806
     288 -> 291       -0.12856
     288 -> 292        0.21804
     289 -> 291       -0.17272
     289 -> 292        0.10491
     289 -> 293        0.32054

 The electronic state is 1-A.
 Alpha  occ. eigenvalues -- -100.86984 -14.28376 -14.28357 -14.28347 -14.25993
 Alpha  occ. eigenvalues --  -14.25959 -14.25947 -10.22712 -10.22701 -10.22676
 Alpha  occ. eigenvalues --  -10.22645 -10.22635 -10.22623 -10.17234 -10.17228
 Alpha  occ. eigenvalues --  -10.17225 -10.17220 -10.17219 -10.17216 -10.17213
 Alpha  occ. eigenvalues --  -10.17211 -10.17209 -10.17206 -10.17205 -10.17201
 Alpha  occ. eigenvalues --  -10.17199 -10.17197 -10.17196 -10.17190 -10.17178
 Alpha  occ. eigenvalues --  -10.17174 -10.17172 -10.17170 -10.17170 -10.17167
 Alpha  occ. eigenvalues --  -10.17166 -10.17163 -10.17162 -10.17158 -10.17157
 Alpha  occ. eigenvalues --  -10.17154 -10.17153 -10.17149 -10.17148 -10.17146
 Alpha  occ. eigenvalues --  -10.17145 -10.17143 -10.17140 -10.17138 -10.17136
 Alpha  occ. eigenvalues --  -10.17134 -10.17133 -10.17129 -10.17125 -10.17120
 Alpha  occ. eigenvalues --  -10.17109 -10.17107 -10.17104 -10.17099 -10.17097
 Alpha  occ. eigenvalues --  -10.17093 -10.17092 -10.17084 -10.17081 -10.17074
 Alpha  occ. eigenvalues --  -10.17069 -10.17046 -10.17019 -10.17012 -10.17011
 Alpha  occ. eigenvalues --  -10.17010 -10.17007 -10.16974 -10.15875 -10.15843
 Alpha  occ. eigenvalues --  -10.15836 -10.15799 -10.15779 -10.15761 -10.14804
 Alpha  occ. eigenvalues --  -10.14802 -10.14797 -10.14795 -10.14775 -10.14729
 Alpha  occ. eigenvalues --  -10.14478 -10.14471 -10.14461 -10.14437 -10.14429
 Alpha  occ. eigenvalues --  -10.14418  -9.36514  -7.17969  -7.17264  -7.17264
 Alpha  occ. eigenvalues --   -6.80505  -1.21733  -1.17298  -1.17274  -1.12985
 Alpha  occ. eigenvalues --   -1.10942  -1.10909  -1.10901  -1.09161  -1.09143
 Alpha  occ. eigenvalues --   -1.06960  -1.06946  -1.06942  -1.06922  -1.06919
 Alpha  occ. eigenvalues --   -1.04276  -1.03205  -1.02718  -1.02689  -1.02668
 Alpha  occ. eigenvalues --   -1.02084  -1.02067  -0.99443  -0.99430  -0.99423
 Alpha  occ. eigenvalues --   -0.99418  -0.95845  -0.94012  -0.93992  -0.93989
 Alpha  occ. eigenvalues --   -0.93980  -0.93976  -0.93737  -0.92981  -0.92304
 Alpha  occ. eigenvalues --   -0.92277  -0.92213  -0.92201  -0.92187  -0.92131
 Alpha  occ. eigenvalues --   -0.91587  -0.91568  -0.87873  -0.85951  -0.85951
 Alpha  occ. eigenvalues --   -0.85943  -0.85936  -0.85934  -0.84728  -0.84721
 Alpha  occ. eigenvalues --   -0.84716  -0.83597  -0.83592  -0.82087  -0.80429
 Alpha  occ. eigenvalues --   -0.80417  -0.80412  -0.78851  -0.78828  -0.76058
 Alpha  occ. eigenvalues --   -0.76054  -0.76049  -0.76045  -0.76040  -0.75557
 Alpha  occ. eigenvalues --   -0.75533  -0.75518  -0.75502  -0.75476  -0.73604
 Alpha  occ. eigenvalues --   -0.73529  -0.72859  -0.72855  -0.72531  -0.69051
 Alpha  occ. eigenvalues --   -0.69034  -0.68888  -0.68861  -0.68855  -0.68850
 Alpha  occ. eigenvalues --   -0.66730  -0.65789  -0.65737  -0.65735  -0.65727
 Alpha  occ. eigenvalues --   -0.65723  -0.65718  -0.65006  -0.64302  -0.64296
 Alpha  occ. eigenvalues --   -0.64294  -0.63399  -0.63383  -0.62848  -0.62348
 Alpha  occ. eigenvalues --   -0.62329  -0.61638  -0.61629  -0.61619  -0.60503
 Alpha  occ. eigenvalues --   -0.60476  -0.60346  -0.60180  -0.59488  -0.59443
 Alpha  occ. eigenvalues --   -0.58752  -0.58737  -0.58732  -0.58721  -0.58425
 Alpha  occ. eigenvalues --   -0.57391  -0.57377  -0.57086  -0.56759  -0.56733
 Alpha  occ. eigenvalues --   -0.56618  -0.56615  -0.56611  -0.56606  -0.56585
 Alpha  occ. eigenvalues --   -0.56475  -0.55014  -0.55005  -0.54975  -0.54965
 Alpha  occ. eigenvalues --   -0.54957  -0.54950  -0.54906  -0.54882  -0.54867
 Alpha  occ. eigenvalues --   -0.53754  -0.53740  -0.53732  -0.52805  -0.52790
 Alpha  occ. eigenvalues --   -0.52504  -0.51770  -0.51758  -0.51752  -0.51745
 Alpha  occ. eigenvalues --   -0.51498  -0.51477  -0.49763  -0.49526  -0.49513
 Alpha  occ. eigenvalues --   -0.48557  -0.48042  -0.47909  -0.47810  -0.47653
 Alpha  occ. eigenvalues --   -0.47455  -0.47172  -0.46946  -0.46940  -0.46934
 Alpha  occ. eigenvalues --   -0.46929  -0.46921  -0.46571  -0.46538  -0.46070
 Alpha  occ. eigenvalues --   -0.46020  -0.45891  -0.45727  -0.45690  -0.45687
 Alpha  occ. eigenvalues --   -0.45683  -0.45680  -0.45648  -0.45259  -0.42071
 Alpha  occ. eigenvalues --   -0.42068  -0.40892  -0.40879  -0.40144  -0.38713
 Alpha  occ. eigenvalues --   -0.37910  -0.37588  -0.37474  -0.37377  -0.37251
 Alpha  occ. eigenvalues --   -0.36956  -0.36861  -0.36541  -0.36445  -0.36355
 Alpha  occ. eigenvalues --   -0.36216  -0.36038  -0.35879  -0.35810  -0.30746
 Alpha  occ. eigenvalues --   -0.30697  -0.30663  -0.30649  -0.30611  -0.26516
 Alpha virt. eigenvalues --   -0.05920  -0.05871  -0.05829  -0.04171  -0.04153
 Alpha virt. eigenvalues --   -0.00411  -0.00377  -0.00279   0.04335   0.04432
 Alpha virt. eigenvalues --    0.04539   0.04622   0.04648   0.04670   0.04752

 Mulliken charges:
               1
     1  C   -0.178755
     2  C   -0.179358
     3  C   -0.199917
     4  C    0.018462
     5  C   -0.201126
     6  C    0.014633
     7  C    0.431367
     8  N   -0.547670
     9  H    0.194932
    10  H    0.194798
    11  H    0.205581
    12  H    0.205612
    13  C    0.424529
    14  N   -0.473039
    15  C   -0.178540
    16  C   -0.179742
    17  C   -0.199322
    18  C    0.014900
    19  C   -0.200069
    20  C    0.014661
    21  C    0.427571
    22  N   -0.550088
    23  H    0.194994
    24  H    0.195085
    25  H    0.205654
    26  H    0.205689
    27  B    0.527351
    28  C    0.429503
    29  N   -0.474957
    30  C   -0.181017
    31  C   -0.179287
    32  C   -0.200169
    33  C    0.017414
    34  C   -0.201672
    35  C    0.014270
    36  C    0.428776
    37  N   -0.551848
    38  H    0.194877
    39  H    0.194677
    40  H    0.205126
    41  H    0.205679
    42  C    0.432042
    43  N   -0.473130
    44  Cl  -0.226970
    45  C   -0.000894
    46  C   -0.003842
    47  C   -0.002529
    48  C   -0.000652
    49  C   -0.001021
    50  C   -0.000633
    51  C   -0.000627
    52  C   -0.000718
    53  C   -0.000651
    54  C   -0.003875
    55  C   -0.000585
    56  C   -0.005070
    57  C    0.009527
    58  C    0.013754
    59  C    0.003741
    60  C   -0.004746
    61  C   -0.003775
    62  C    0.002690
    63  C   -0.001526
    64  C   -0.012657
    65  C   -0.017650
    66  C    0.011999
    67  C    0.013458
    68  C   -0.004478
    69  C   -0.001498
    70  C   -0.001071
    71  C   -0.000705
    72  C   -0.000550
    73  C   -0.000678
    74  C   -0.000364
    75  C   -0.000250
    76  C   -0.000726
    77  C   -0.000557
    78  C   -0.000931
    79  C   -0.001480
    80  C   -0.002158
    81  C   -0.003647
    82  C   -0.004612
    83  C    0.010102
    84  C    0.018782
    85  C    0.018580
    86  C   -0.011061
    87  C   -0.001784
    88  C   -0.000967
    89  C   -0.001297
    90  C   -0.001328
    91  C   -0.001117
    92  C   -0.010385
    93  C   -0.001952
    94  C   -0.000848
    95  C   -0.001228
    96  C   -0.000950
    97  C   -0.000931
    98  C   -0.000542
    99  C   -0.000578
   100  C   -0.000761
   101  C   -0.001282
   102  C   -0.000771
   103  C   -0.000485
   104  C   -0.000713
 Sum of Mulliken charges =   0.00000

 Dipole moment (field-independent basis, Debye):
    X=              5.3562    Y=              0.0520    Z=             -0.0021  Tot=              5.3565
 Quadrupole moment (field-independent basis, Debye-Ang):
   XX=           -566.7636   YY=           -477.1535   ZZ=           -477.6608
   XY=             -0.6814   XZ=             -0.0943   YZ=              0.1089

 Normal termination of Gaussian 09 at Mon Aug  6 11:57:27 2018.
