 Gaussian 09, Revision D.01,
 Gaussian 09:  ES64L-G09RevD.01 24-Apr-2013

 ----------------------------------------------------------------------
 #p wb97xd/6-31g* TD=(singlets,root=1,nstates=10) SCRF=(PCM,read)units=
 (ang,deg)
 ----------------------------------------------------------------------

 ---------
 SubPc-C60
 ---------
 Symbolic Z-matrix:
 Charge =  0 Multiplicity = 1

                         Standard orientation:
 ---------------------------------------------------------------------
 Center     Atomic      Atomic             Coordinates (Angstroms)
 Number     Number       Type             X           Y           Z
 ---------------------------------------------------------------------
      1          6           0       -2.274508   -3.377063   -4.125801
      2          6           0       -2.263053   -2.176926   -4.857772
      3          6           0       -2.862802   -1.028400   -4.364501
      4          6           0       -3.499115   -1.102110   -3.126404
      5          6           0       -2.882960   -3.455724   -2.882831
      6          6           0       -3.508892   -2.312701   -2.386370
      7          6           0       -4.084811   -0.076619   -2.279894
      8          7           0       -4.526754   -0.727402   -1.167380
      9          1           0       -1.785971   -4.253872   -4.539092
     10          1           0       -1.764636   -2.148866   -5.821605
     11          1           0       -2.832007   -0.091627   -4.910642
     12          1           0       -2.867978   -4.371314   -2.301162
     13          6           0       -4.094484   -2.017803   -1.089182
     14          7           0       -3.961881   -2.665579    0.070485
     15          6           0       -2.371410    5.281630   -0.851460
     16          6           0       -2.379280    5.322023    0.553886
     17          6           0       -2.960177    4.307426    1.298559
     18          6           0       -3.561290    3.252658    0.613032
     19          6           0       -2.944894    4.226267   -1.543315
     20          6           0       -3.553956    3.212454   -0.805311
     21          6           0       -4.123471    1.994237    1.075231
     22          7           0       -4.543935    1.346366   -0.047835
     23          1           0       -1.895073    6.087256   -1.401311
     24          1           0       -1.909632    6.158443    1.061923
     25          1           0       -2.941882    4.318032    2.383175
     26          1           0       -2.914117    4.173662   -2.626437
     27          5           0       -5.140800   -0.017002   -0.012185
     28          6           0       -4.111764    1.929946   -1.201203
     29          7           0       -3.958470    1.250980   -2.339371
     30          6           0       -2.310268   -1.891396    4.977009
     31          6           0       -2.317412   -3.133315    4.316477
     32          6           0       -2.919605   -3.285852    3.077934
     33          6           0       -3.541645   -2.174173    2.510303
     34          6           0       -2.910472   -0.775822    4.415263
     35          6           0       -3.539829   -0.923162    3.179374
     36          6           0       -4.107319   -1.952956    1.189853
     37          7           0       -4.538028   -0.659633    1.187425
     38          1           0       -1.815817   -1.805780    5.939523
     39          1           0       -1.828734   -3.983267    4.782403
     40          1           0       -2.898251   -4.233292    2.550088
     41          1           0       -2.883640    0.191304    4.905881
     42          6           0       -4.113578    0.052976    2.268586
     43          7           0       -3.985222    1.381555    2.252456
     44         17           0       -6.997849   -0.028252   -0.021038
     45          6           0        3.040435   -2.414302    2.462691
     46          6           0        1.602499   -2.559042    2.348738
     47          6           0        1.317712   -3.225126    1.092498
     48          6           0        2.579125   -3.491600    0.430081
     49          6           0        3.643551   -2.990730    1.277009
     50          6           0        4.759588   -2.397094    0.708300
     51          6           0        4.861924   -2.276173   -0.732561
     52          6           0        3.843880   -2.754375   -1.542479
     53          6           0        2.677201   -3.376098   -0.948296
     54          6           0        1.518203   -2.989521   -1.728605
     55          6           0        0.313102   -2.731881   -1.094866
     56          6           0        0.210140   -2.853292    0.346386
     57          6           0       -0.657833   -1.796230    0.821680
     58          6           0       -0.383438   -1.159137    2.018985
     59          6           0        0.767874   -1.550192    2.803519
     60          6           0        1.330611   -0.352511    3.395754
     61          6           0        0.519763    0.775955    2.981629
     62          6           0       -0.540281    0.275164    2.130591
     63          6           0       -0.958524    1.012891    1.036171
     64          6           0       -1.246951    0.348285   -0.218610
     65          6           0       -1.093666   -1.024520   -0.322668
     66          6           0       -0.492613   -1.601471   -1.506735
     67          6           0       -0.065890   -0.780129   -2.535968
     68          6           0        1.193882   -1.048251   -3.199179
     69          6           0        1.968797   -2.128027   -2.804771
     70          6           0        3.406425   -1.982747   -2.689277
     71          6           0        4.006731   -0.766313   -2.975093
     72          6           0        5.071419   -0.266035   -2.127753
     73          6           0        5.489384   -1.004077   -1.031630
     74          6           0        5.774190   -0.338419    0.223871
     75          6           0        5.628259    1.035967    0.328640
     76          6           0        5.190843    1.808081   -0.817554
     77          6           0        4.918856    1.171548   -2.018268
     78          6           0        3.759825    1.559376   -2.797700
     79          6           0        3.196179    0.361836   -3.388879
     80          6           0        1.821102    0.224008   -3.497850
     81          6           0        0.946342    1.277726   -3.021547
     82          6           0       -0.220748    0.656816   -2.427423
     83          6           0       -0.794525    1.208471   -1.294193
     84          6           0       -0.230997    2.404597   -0.703153
     85          6           0       -0.333082    2.284172    0.736882
     86          6           0        0.681738    2.764824    1.548305
     87          6           0        1.119309    1.992349    2.694862
     88          6           0        2.557217    2.136201    2.808958
     89          6           0        3.007702    2.996679    1.732425
     90          6           0        1.848275    3.385123    0.953525
     91          6           0        1.946512    3.500722   -0.424856
     92          6           0        0.882607    3.000787   -1.272359
     93          6           0        1.485845    2.423243   -2.457141
     94          6           0        2.923809    2.566667   -2.342148
     95          6           0        3.208288    3.232523   -1.086120
     96          6           0        4.316989    2.862084   -0.341024
     97          6           0        4.214166    2.741082    1.099862
     98          6           0        5.024586    1.612550    1.513507
     99          6           0        4.593829    0.789569    2.542064
    100          6           0        3.332409    1.057029    3.204354
    101          6           0        2.705550   -0.214940    3.504618
    102          6           0        3.579668   -1.268809    3.027241
    103          6           0        4.746595   -0.647874    2.432401
    104          6           0        5.323472   -1.199572    1.299254
 ---------------------------------------------------------------------

 SCF Done:  E(RwB97XD) =  -4020.57977923     A.U. after   14 cycles

 Excitation energies and oscillator strengths:

 Excited State   1:      Singlet-A      2.4654 eV  502.90 nm  f=0.2774  <S**2>=0.000
     290 -> 293        0.10295
     290 -> 295        0.67222
 This state for optimization and/or second-order correction.
 Total Energy, E(TD-HF/TD-KS) =  -4020.48917737
 Copying the excited state density for this state as the 1-particle RhoCI density.

 Excited State   2:      Singlet-A      2.4722 eV  501.52 nm  f=0.2859  <S**2>=0.000
     290 -> 294        0.68047

 Excited State   3:      Singlet-A      2.6653 eV  465.18 nm  f=0.0001  <S**2>=0.000
     285 -> 291       -0.12332
     285 -> 292       -0.26372
     286 -> 291       -0.17562
     286 -> 292       -0.15977
     286 -> 293        0.15400
     287 -> 291        0.10392
     287 -> 292       -0.11617
     288 -> 292        0.10445
     289 -> 291        0.42271
     289 -> 292       -0.22410
     289 -> 293       -0.15607

 Excited State   4:      Singlet-A      2.6673 eV  464.83 nm  f=0.0000  <S**2>=0.000
     285 -> 291       -0.11184
     286 -> 291        0.28151
     286 -> 292       -0.20221
     286 -> 293        0.10169
     287 -> 291       -0.19252
     287 -> 292       -0.23996
     287 -> 293       -0.25548
     288 -> 291        0.15030
     288 -> 292       -0.20090
     289 -> 291        0.10253
     289 -> 293        0.26044

 Excited State   5:      Singlet-A      2.6745 eV  463.58 nm  f=0.0001  <S**2>=0.000
     285 -> 291       -0.32238
     285 -> 292       -0.15096
     286 -> 293       -0.12892
     287 -> 292        0.31259
     288 -> 293        0.40919
     289 -> 293        0.13368

 Excited State   6:      Singlet-A      2.7151 eV  456.65 nm  f=0.0003  <S**2>=0.000
     285 -> 292        0.20946
     286 -> 292        0.23236
     287 -> 291       -0.26711
     287 -> 292        0.18010
     287 -> 293       -0.14881
     288 -> 293       -0.15632
     289 -> 291        0.32960
     290 -> 291       -0.22921
     290 -> 292        0.12128

 Excited State   7:      Singlet-A      2.7255 eV  454.90 nm  f=0.0001  <S**2>=0.000
     285 -> 291        0.21582
     285 -> 292        0.16406
     286 -> 291        0.20507
     286 -> 292       -0.10869
     286 -> 293        0.13255
     287 -> 291       -0.15074
     287 -> 292        0.10194
     287 -> 293        0.21650
     288 -> 291        0.31740
     288 -> 292        0.24679
     288 -> 293        0.13262
     289 -> 292       -0.19113
     290 -> 293        0.10270

 Excited State   8:      Singlet-A      2.7301 eV  454.14 nm  f=0.0001  <S**2>=0.000
     285 -> 291        0.31783
     285 -> 292        0.12982
     286 -> 292        0.12130
     286 -> 293       -0.13278
     287 -> 292       -0.12719
     287 -> 293       -0.14069
     288 -> 291       -0.22295
     288 -> 292       -0.17975
     288 -> 293        0.32756
     289 -> 291        0.10944
     289 -> 292       -0.26879

 Excited State   9:      Singlet-A      2.7491 eV  450.99 nm  f=0.0004  <S**2>=0.000
     285 -> 291        0.16381
     285 -> 292       -0.12886
     286 -> 291        0.14567
     286 -> 292        0.18499
     286 -> 293        0.11483
     287 -> 291        0.13565
     287 -> 293       -0.10204
     289 -> 291        0.23145
     289 -> 292        0.39318
     290 -> 291        0.28099
     290 -> 292       -0.11246

 Excited State  10:      Singlet-A      2.7658 eV  448.27 nm  f=0.0000  <S**2>=0.000
     285 -> 291       -0.17805
     285 -> 293        0.16351
     286 -> 291       -0.16343
     286 -> 292        0.39859
     286 -> 293        0.24956
     287 -> 292       -0.17795
     288 -> 291        0.24867
     289 -> 292       -0.18156
     290 -> 293        0.10348

 The electronic state is 1-A.
 Alpha  occ. eigenvalues -- -101.67836 -14.50687 -14.50670 -14.50664 -14.48593
 Alpha  occ. eigenvalues --  -14.48563 -14.48551 -10.40035 -10.40022 -10.40011
 Alpha  occ. eigenvalues --  -10.39985 -10.39971 -10.39969 -10.34465 -10.34457
 Alpha  occ. eigenvalues --  -10.34454 -10.34446 -10.34445 -10.34440 -10.34436
 Alpha  occ. eigenvalues --  -10.34434 -10.34430 -10.34429 -10.34427 -10.34424
 Alpha  occ. eigenvalues --  -10.34420 -10.34419 -10.34417 -10.34411 -10.34403
 Alpha  occ. eigenvalues --  -10.34396 -10.34392 -10.34387 -10.34385 -10.34384
 Alpha  occ. eigenvalues --  -10.34381 -10.34378 -10.34375 -10.34372 -10.34369
 Alpha  occ. eigenvalues --  -10.34367 -10.34366 -10.34364 -10.34363 -10.34358
 Alpha  occ. eigenvalues --  -10.34358 -10.34356 -10.34353 -10.34351 -10.34347
 Alpha  occ. eigenvalues --  -10.34343 -10.34343 -10.34339 -10.34337 -10.34336
 Alpha  occ. eigenvalues --  -10.34327 -10.34322 -10.34322 -10.34318 -10.34311
 Alpha  occ. eigenvalues --  -10.34306 -10.34304 -10.34294 -10.34294 -10.34287
 Alpha  occ. eigenvalues --  -10.34273 -10.34257 -10.34237 -10.34235 -10.34230
 Alpha  occ. eigenvalues --  -10.34223 -10.34213 -10.34189 -10.33191 -10.33171
 Alpha  occ. eigenvalues --  -10.33142 -10.33132 -10.33108 -10.33084 -10.32200
 Alpha  occ. eigenvalues --  -10.32194 -10.32187 -10.32182 -10.32169 -10.32127
 Alpha  occ. eigenvalues --  -10.31888 -10.31885 -10.31877 -10.31835 -10.31833
 Alpha  occ. eigenvalues --  -10.31824  -9.55199  -7.29776  -7.29216  -7.29216
 Alpha  occ. eigenvalues --   -6.92310  -1.17103  -1.12761  -1.12743  -1.07649
 Alpha  occ. eigenvalues --   -1.05650  -1.05613  -1.05605  -1.04798  -1.04782
 Alpha  occ. eigenvalues --   -1.01755  -1.01743  -1.01738  -1.01715  -1.01712
 Alpha  occ. eigenvalues --   -1.00224  -0.98138  -0.97637  -0.97609  -0.97586
 Alpha  occ. eigenvalues --   -0.97150  -0.97131  -0.94413  -0.94401  -0.94395
 Alpha  occ. eigenvalues --   -0.94385  -0.90945  -0.89171  -0.89145  -0.89142
 Alpha  occ. eigenvalues --   -0.89133  -0.89129  -0.88995  -0.88324  -0.87675
 Alpha  occ. eigenvalues --   -0.87664  -0.87444  -0.87438  -0.87430  -0.87410
 Alpha  occ. eigenvalues --   -0.86926  -0.86908  -0.83428  -0.81546  -0.81542
 Alpha  occ. eigenvalues --   -0.81536  -0.81530  -0.81529  -0.80077  -0.80071
 Alpha  occ. eigenvalues --   -0.80067  -0.79363  -0.79356  -0.77555  -0.75790
 Alpha  occ. eigenvalues --   -0.75779  -0.75774  -0.74453  -0.74432  -0.71879
 Alpha  occ. eigenvalues --   -0.71873  -0.71870  -0.71865  -0.71860  -0.71373
 Alpha  occ. eigenvalues --   -0.71365  -0.71358  -0.71224  -0.71214  -0.69465
 Alpha  occ. eigenvalues --   -0.69021  -0.68880  -0.68874  -0.68293  -0.64833
 Alpha  occ. eigenvalues --   -0.64819  -0.64643  -0.64616  -0.64611  -0.64608
 Alpha  occ. eigenvalues --   -0.62433  -0.61929  -0.61926  -0.61919  -0.61915
 Alpha  occ. eigenvalues --   -0.61911  -0.61320  -0.60606  -0.60324  -0.60318
 Alpha  occ. eigenvalues --   -0.60316  -0.59531  -0.59519  -0.58204  -0.58195
 Alpha  occ. eigenvalues --   -0.57775  -0.57766  -0.57756  -0.57585  -0.56677
 Alpha  occ. eigenvalues --   -0.55595  -0.55543  -0.55188  -0.54983  -0.54976
 Alpha  occ. eigenvalues --   -0.54968  -0.54962  -0.54780  -0.54746  -0.54649
 Alpha  occ. eigenvalues --   -0.53644  -0.53631  -0.53244  -0.52997  -0.52971
 Alpha  occ. eigenvalues --   -0.52911  -0.52907  -0.52904  -0.52896  -0.52875
 Alpha  occ. eigenvalues --   -0.52760  -0.51515  -0.51502  -0.51499  -0.51491
 Alpha  occ. eigenvalues --   -0.50557  -0.50531  -0.50451  -0.50408  -0.50403
 Alpha  occ. eigenvalues --   -0.50210  -0.50199  -0.50191  -0.49039  -0.49034
 Alpha  occ. eigenvalues --   -0.48414  -0.48284  -0.48280  -0.48275  -0.48269
 Alpha  occ. eigenvalues --   -0.47339  -0.47322  -0.46181  -0.46173  -0.45804
 Alpha  occ. eigenvalues --   -0.45289  -0.44518  -0.44386  -0.44278  -0.44066
 Alpha  occ. eigenvalues --   -0.43864  -0.43753  -0.43743  -0.43734  -0.43729
 Alpha  occ. eigenvalues --   -0.43728  -0.43646  -0.43183  -0.43052  -0.42504
 Alpha  occ. eigenvalues --   -0.42502  -0.42496  -0.42495  -0.42488  -0.42332
 Alpha  occ. eigenvalues --   -0.42285  -0.42159  -0.41960  -0.41752  -0.38498
 Alpha  occ. eigenvalues --   -0.38496  -0.37556  -0.37543  -0.37097  -0.35838
 Alpha  occ. eigenvalues --   -0.34974  -0.34708  -0.34559  -0.34476  -0.34355
 Alpha  occ. eigenvalues --   -0.34189  -0.34096  -0.33929  -0.33797  -0.33646
 Alpha  occ. eigenvalues --   -0.33554  -0.33391  -0.33136  -0.33066  -0.28475
 Alpha  occ. eigenvalues --   -0.28431  -0.28398  -0.28385  -0.28344  -0.25101
 Alpha virt. eigenvalues --   -0.06303  -0.06259  -0.06216  -0.04480  -0.04464
 Alpha virt. eigenvalues --   -0.01223  -0.01189  -0.01097   0.03150   0.03222
 Alpha virt. eigenvalues --    0.03299   0.03362   0.03390   0.03436   0.03653

 Mulliken charges:
               1
     1  C   -0.178150
     2  C   -0.178565
     3  C   -0.207308
     4  C    0.032659
     5  C   -0.208420
     6  C    0.028753
     7  C    0.441952
     8  N   -0.556800
     9  H    0.194782
    10  H    0.194650
    11  H    0.206404
    12  H    0.206516
    13  C    0.436636
    14  N   -0.505488
    15  C   -0.178042
    16  C   -0.178827
    17  C   -0.207592
    18  C    0.030166
    19  C   -0.207737
    20  C    0.029491
    21  C    0.438461
    22  N   -0.558802
    23  H    0.194795
    24  H    0.194854
    25  H    0.206544
    26  H    0.206560
    27  B    0.549218
    28  C    0.440289
    29  N   -0.507246
    30  C   -0.180072
    31  C   -0.178365
    32  C   -0.208167
    33  C    0.032035
    34  C   -0.209369
    35  C    0.029890
    36  C    0.439123
    37  N   -0.559357
    38  H    0.194639
    39  H    0.194451
    40  H    0.206007
    41  H    0.206470
    42  C    0.441659
    43  N   -0.505129
    44  Cl  -0.238731
    45  C   -0.000974
    46  C   -0.004106
    47  C   -0.002271
    48  C   -0.000791
    49  C   -0.000946
    50  C   -0.000654
    51  C   -0.000795
    52  C   -0.000739
    53  C   -0.000615
    54  C   -0.003746
    55  C   -0.001731
    56  C   -0.006250
    57  C    0.009085
    58  C    0.016867
    59  C    0.001996
    60  C   -0.004747
    61  C   -0.004248
    62  C    0.001873
    63  C   -0.001842
    64  C   -0.012561
    65  C   -0.015942
    66  C    0.014030
    67  C    0.013070
    68  C   -0.005005
    69  C   -0.001815
    70  C   -0.001068
    71  C   -0.000634
    72  C   -0.000832
    73  C   -0.000462
    74  C   -0.000431
    75  C   -0.000381
    76  C   -0.000513
    77  C   -0.000639
    78  C   -0.000899
    79  C   -0.001473
    80  C   -0.002225
    81  C   -0.003581
    82  C   -0.005616
    83  C    0.009780
    84  C    0.018540
    85  C    0.017830
    86  C   -0.011295
    87  C   -0.001560
    88  C   -0.001256
    89  C   -0.001120
    90  C   -0.001260
    91  C   -0.001213
    92  C   -0.010458
    93  C   -0.001966
    94  C   -0.000942
    95  C   -0.001055
    96  C   -0.001254
    97  C   -0.000931
    98  C   -0.000512
    99  C   -0.000689
   100  C   -0.000640
   101  C   -0.001286
   102  C   -0.000704
   103  C   -0.000504
   104  C   -0.000733
 Sum of Mulliken charges =   0.00000

 Dipole moment (field-independent basis, Debye):
    X=              5.3386    Y=              0.0401    Z=             -0.0004  Tot=              5.3387
 Quadrupole moment (field-independent basis, Debye-Ang):
   XX=           -568.8844   YY=           -479.0741   ZZ=           -479.5284
   XY=             -0.6338   XZ=             -0.0996   YZ=              0.1199

 Normal termination of Gaussian 09 at Thu Aug  2 12:07:27 2018.
