 Gaussian 09, Revision D.01,
 Gaussian 09:  ES64L-G09RevD.01 24-Apr-2013

 -----------------------------------------------------------------
 #p LC-wPBE/6-31g* TD=(singlets,root=1,nstates=10) units=(ang,deg)
 -----------------------------------------------------------------

 ---------
 SubPc-C60
 ---------
 Symbolic Z-matrix:
 Charge =  0 Multiplicity = 1

                         Standard orientation:
 ---------------------------------------------------------------------
 Center     Atomic      Atomic             Coordinates (Angstroms)
 Number     Number       Type             X           Y           Z
 ---------------------------------------------------------------------
      1          6           0       -2.274508   -3.377063   -4.125801
      2          6           0       -2.263053   -2.176926   -4.857772
      3          6           0       -2.862802   -1.028400   -4.364501
      4          6           0       -3.499115   -1.102110   -3.126404
      5          6           0       -2.882960   -3.455724   -2.882831
      6          6           0       -3.508892   -2.312701   -2.386370
      7          6           0       -4.084811   -0.076619   -2.279894
      8          7           0       -4.526754   -0.727402   -1.167380
      9          1           0       -1.785971   -4.253872   -4.539092
     10          1           0       -1.764636   -2.148866   -5.821605
     11          1           0       -2.832007   -0.091627   -4.910642
     12          1           0       -2.867978   -4.371314   -2.301162
     13          6           0       -4.094484   -2.017803   -1.089182
     14          7           0       -3.961881   -2.665579    0.070485
     15          6           0       -2.371410    5.281630   -0.851460
     16          6           0       -2.379280    5.322023    0.553886
     17          6           0       -2.960177    4.307426    1.298559
     18          6           0       -3.561290    3.252658    0.613032
     19          6           0       -2.944894    4.226267   -1.543315
     20          6           0       -3.553956    3.212454   -0.805311
     21          6           0       -4.123471    1.994237    1.075231
     22          7           0       -4.543935    1.346366   -0.047835
     23          1           0       -1.895073    6.087256   -1.401311
     24          1           0       -1.909632    6.158443    1.061923
     25          1           0       -2.941882    4.318032    2.383175
     26          1           0       -2.914117    4.173662   -2.626437
     27          5           0       -5.140800   -0.017002   -0.012185
     28          6           0       -4.111764    1.929946   -1.201203
     29          7           0       -3.958470    1.250980   -2.339371
     30          6           0       -2.310268   -1.891396    4.977009
     31          6           0       -2.317412   -3.133315    4.316477
     32          6           0       -2.919605   -3.285852    3.077934
     33          6           0       -3.541645   -2.174173    2.510303
     34          6           0       -2.910472   -0.775822    4.415263
     35          6           0       -3.539829   -0.923162    3.179374
     36          6           0       -4.107319   -1.952956    1.189853
     37          7           0       -4.538028   -0.659633    1.187425
     38          1           0       -1.815817   -1.805780    5.939523
     39          1           0       -1.828734   -3.983267    4.782403
     40          1           0       -2.898251   -4.233292    2.550088
     41          1           0       -2.883640    0.191304    4.905881
     42          6           0       -4.113578    0.052976    2.268586
     43          7           0       -3.985222    1.381555    2.252456
     44         17           0       -6.997849   -0.028252   -0.021038
     45          6           0        3.040435   -2.414302    2.462691
     46          6           0        1.602499   -2.559042    2.348738
     47          6           0        1.317712   -3.225126    1.092498
     48          6           0        2.579125   -3.491600    0.430081
     49          6           0        3.643551   -2.990730    1.277009
     50          6           0        4.759588   -2.397094    0.708300
     51          6           0        4.861924   -2.276173   -0.732561
     52          6           0        3.843880   -2.754375   -1.542479
     53          6           0        2.677201   -3.376098   -0.948296
     54          6           0        1.518203   -2.989521   -1.728605
     55          6           0        0.313102   -2.731881   -1.094866
     56          6           0        0.210140   -2.853292    0.346386
     57          6           0       -0.657833   -1.796230    0.821680
     58          6           0       -0.383438   -1.159137    2.018985
     59          6           0        0.767874   -1.550192    2.803519
     60          6           0        1.330611   -0.352511    3.395754
     61          6           0        0.519763    0.775955    2.981629
     62          6           0       -0.540281    0.275164    2.130591
     63          6           0       -0.958524    1.012891    1.036171
     64          6           0       -1.246951    0.348285   -0.218610
     65          6           0       -1.093666   -1.024520   -0.322668
     66          6           0       -0.492613   -1.601471   -1.506735
     67          6           0       -0.065890   -0.780129   -2.535968
     68          6           0        1.193882   -1.048251   -3.199179
     69          6           0        1.968797   -2.128027   -2.804771
     70          6           0        3.406425   -1.982747   -2.689277
     71          6           0        4.006731   -0.766313   -2.975093
     72          6           0        5.071419   -0.266035   -2.127753
     73          6           0        5.489384   -1.004077   -1.031630
     74          6           0        5.774190   -0.338419    0.223871
     75          6           0        5.628259    1.035967    0.328640
     76          6           0        5.190843    1.808081   -0.817554
     77          6           0        4.918856    1.171548   -2.018268
     78          6           0        3.759825    1.559376   -2.797700
     79          6           0        3.196179    0.361836   -3.388879
     80          6           0        1.821102    0.224008   -3.497850
     81          6           0        0.946342    1.277726   -3.021547
     82          6           0       -0.220748    0.656816   -2.427423
     83          6           0       -0.794525    1.208471   -1.294193
     84          6           0       -0.230997    2.404597   -0.703153
     85          6           0       -0.333082    2.284172    0.736882
     86          6           0        0.681738    2.764824    1.548305
     87          6           0        1.119309    1.992349    2.694862
     88          6           0        2.557217    2.136201    2.808958
     89          6           0        3.007702    2.996679    1.732425
     90          6           0        1.848275    3.385123    0.953525
     91          6           0        1.946512    3.500722   -0.424856
     92          6           0        0.882607    3.000787   -1.272359
     93          6           0        1.485845    2.423243   -2.457141
     94          6           0        2.923809    2.566667   -2.342148
     95          6           0        3.208288    3.232523   -1.086120
     96          6           0        4.316989    2.862084   -0.341024
     97          6           0        4.214166    2.741082    1.099862
     98          6           0        5.024586    1.612550    1.513507
     99          6           0        4.593829    0.789569    2.542064
    100          6           0        3.332409    1.057029    3.204354
    101          6           0        2.705550   -0.214940    3.504618
    102          6           0        3.579668   -1.268809    3.027241
    103          6           0        4.746595   -0.647874    2.432401
    104          6           0        5.323472   -1.199572    1.299254
 ---------------------------------------------------------------------

 SCF Done:  E(RLC-wPBE) =  -4018.87148549     A.U. after   18 cycles

 Excitation energies and oscillator strengths:

 Excited State   1:      Singlet-A      2.4604 eV  503.92 nm  f=0.2220  <S**2>=0.000
     282 -> 294       -0.10357
     290 -> 294       -0.19586
     290 -> 295        0.64924
 This state for optimization and/or second-order correction.
 Total Energy, E(TD-HF/TD-KS) =  -4018.78106818
 Copying the excited state density for this state as the 1-particle RhoCI density.

 Excited State   2:      Singlet-A      2.4651 eV  502.96 nm  f=0.2266  <S**2>=0.000
     290 -> 294        0.65278
     290 -> 295        0.19510

 Excited State   3:      Singlet-A      2.9397 eV  421.75 nm  f=0.0000  <S**2>=0.000
     285 -> 292       -0.17750
     286 -> 291        0.24881
     286 -> 293        0.11098
     287 -> 291        0.28618
     287 -> 293       -0.12843
     288 -> 292       -0.19158
     289 -> 291        0.24961
     289 -> 292       -0.15600
     289 -> 293        0.30558

 Excited State   4:      Singlet-A      2.9415 eV  421.50 nm  f=0.0000  <S**2>=0.000
     285 -> 291       -0.18763
     285 -> 292       -0.20206
     286 -> 291       -0.13686
     286 -> 292        0.30107
     286 -> 293        0.13353
     287 -> 291       -0.13707
     287 -> 292       -0.17476
     287 -> 293        0.20193
     288 -> 292        0.15834
     289 -> 291        0.27531
     289 -> 292       -0.15708
     289 -> 293       -0.13702

 Excited State   5:      Singlet-A      2.9489 eV  420.44 nm  f=0.0000  <S**2>=0.000
     275 -> 298        0.10866
     285 -> 291       -0.30996
     285 -> 292       -0.17019
     286 -> 292       -0.12900
     286 -> 293       -0.14214
     287 -> 292        0.27398
     288 -> 293        0.42922

 Excited State   6:      Singlet-A      3.0424 eV  407.52 nm  f=0.0000  <S**2>=0.000
     285 -> 292        0.22520
     286 -> 292       -0.26905
     286 -> 293        0.15427
     287 -> 291       -0.19046
     287 -> 292        0.18874
     287 -> 293        0.17046
     289 -> 291        0.40682
     290 -> 291       -0.10415

 Excited State   7:      Singlet-A      3.0495 eV  406.57 nm  f=0.0000  <S**2>=0.000
     285 -> 291       -0.17993
     285 -> 292       -0.10539
     286 -> 291        0.15604
     286 -> 292       -0.22207
     286 -> 293       -0.15488
     287 -> 291        0.19366
     287 -> 293        0.21471
     288 -> 291        0.27326
     288 -> 292        0.24732
     288 -> 293       -0.18635
     289 -> 292        0.18936

 Excited State   8:      Singlet-A      3.0515 eV  406.31 nm  f=0.0000  <S**2>=0.000
     285 -> 291        0.33915
     285 -> 292        0.11136
     286 -> 293       -0.14105
     287 -> 292       -0.13897
     287 -> 293        0.15597
     288 -> 291        0.17676
     288 -> 292        0.16992
     288 -> 293        0.29469
     289 -> 292       -0.31223

 Excited State   9:      Singlet-A      3.1083 eV  398.88 nm  f=0.0001  <S**2>=0.000
     285 -> 291        0.17790
     285 -> 292       -0.13103
     286 -> 291       -0.20321
     286 -> 292       -0.11376
     286 -> 293        0.12295
     287 -> 291        0.13891
     287 -> 292       -0.11285
     287 -> 293        0.12491
     288 -> 291       -0.16537
     288 -> 293        0.11406
     289 -> 291        0.12463
     289 -> 292        0.31698
     290 -> 291        0.29799
     290 -> 292       -0.14911

 Excited State  10:      Singlet-A      3.1220 eV  397.13 nm  f=0.0000  <S**2>=0.000
     285 -> 291        0.22281
     285 -> 292       -0.15767
     285 -> 293        0.17253
     286 -> 291       -0.11405
     286 -> 292        0.25084
     286 -> 293       -0.23827
     287 -> 292        0.19902
     287 -> 293       -0.11620
     288 -> 291        0.26467
     289 -> 291        0.19219
     289 -> 292        0.22182

 The electronic state is 1-A.
 Alpha  occ. eigenvalues -- -100.85572 -14.28063 -14.28045 -14.28034 -14.25682
 Alpha  occ. eigenvalues --  -14.25642 -14.25631 -10.22459 -10.22447 -10.22421
 Alpha  occ. eigenvalues --  -10.22391 -10.22383 -10.22371 -10.17345 -10.17339
 Alpha  occ. eigenvalues --  -10.17336 -10.17330 -10.17329 -10.17327 -10.17324
 Alpha  occ. eigenvalues --  -10.17322 -10.17320 -10.17317 -10.17316 -10.17311
 Alpha  occ. eigenvalues --  -10.17310 -10.17306 -10.17306 -10.17301 -10.17286
 Alpha  occ. eigenvalues --  -10.17283 -10.17282 -10.17278 -10.17275 -10.17274
 Alpha  occ. eigenvalues --  -10.17272 -10.17270 -10.17268 -10.17265 -10.17263
 Alpha  occ. eigenvalues --  -10.17261 -10.17258 -10.17256 -10.17253 -10.17252
 Alpha  occ. eigenvalues --  -10.17249 -10.17248 -10.17246 -10.17243 -10.17241
 Alpha  occ. eigenvalues --  -10.17238 -10.17235 -10.17231 -10.17226 -10.17213
 Alpha  occ. eigenvalues --  -10.17207 -10.17206 -10.17199 -10.17199 -10.17197
 Alpha  occ. eigenvalues --  -10.17191 -10.17183 -10.17181 -10.17164 -10.17158
 Alpha  occ. eigenvalues --  -10.17142 -10.17123 -10.17109 -10.17104 -10.17102
 Alpha  occ. eigenvalues --  -10.17088 -10.17083 -10.17053 -10.15858 -10.15832
 Alpha  occ. eigenvalues --  -10.15819 -10.15781 -10.15767 -10.15743 -10.14977
 Alpha  occ. eigenvalues --  -10.14972 -10.14968 -10.14961 -10.14943 -10.14896
 Alpha  occ. eigenvalues --  -10.14739 -10.14738 -10.14721 -10.14698 -10.14697
 Alpha  occ. eigenvalues --  -10.14678  -9.35091  -7.16562  -7.15834  -7.15834
 Alpha  occ. eigenvalues --   -6.79851  -1.21432  -1.17024  -1.16999  -1.13091
 Alpha  occ. eigenvalues --   -1.11041  -1.11018  -1.11010  -1.08887  -1.08872
 Alpha  occ. eigenvalues --   -1.07061  -1.07048  -1.07046  -1.07032  -1.07029
 Alpha  occ. eigenvalues --   -1.03948  -1.03228  -1.02818  -1.02793  -1.02778
 Alpha  occ. eigenvalues --   -1.02151  -1.02131  -0.99543  -0.99531  -0.99528
 Alpha  occ. eigenvalues --   -0.99524  -0.95332  -0.94107  -0.94096  -0.94092
 Alpha  occ. eigenvalues --   -0.94085  -0.94079  -0.93701  -0.92365  -0.92332
 Alpha  occ. eigenvalues --   -0.92315  -0.92303  -0.92250  -0.92188  -0.92165
 Alpha  occ. eigenvalues --   -0.91701  -0.91679  -0.87852  -0.86059  -0.86048
 Alpha  occ. eigenvalues --   -0.86046  -0.86036  -0.86034  -0.84832  -0.84826
 Alpha  occ. eigenvalues --   -0.84821  -0.83434  -0.83429  -0.82040  -0.80530
 Alpha  occ. eigenvalues --   -0.80520  -0.80516  -0.78909  -0.78885  -0.76158
 Alpha  occ. eigenvalues --   -0.76156  -0.76150  -0.76146  -0.76141  -0.75639
 Alpha  occ. eigenvalues --   -0.75628  -0.75617  -0.75558  -0.75542  -0.73698
 Alpha  occ. eigenvalues --   -0.73633  -0.72615  -0.72610  -0.72583  -0.69113
 Alpha  occ. eigenvalues --   -0.69094  -0.68986  -0.68966  -0.68960  -0.68951
 Alpha  occ. eigenvalues --   -0.66703  -0.65841  -0.65837  -0.65832  -0.65826
 Alpha  occ. eigenvalues --   -0.65822  -0.65495  -0.64745  -0.64404  -0.64400
 Alpha  occ. eigenvalues --   -0.64398  -0.63509  -0.63493  -0.62921  -0.62310
 Alpha  occ. eigenvalues --   -0.62292  -0.61737  -0.61732  -0.61721  -0.60577
 Alpha  occ. eigenvalues --   -0.60556  -0.60449  -0.60235  -0.59415  -0.59361
 Alpha  occ. eigenvalues --   -0.58854  -0.58839  -0.58834  -0.58820  -0.58510
 Alpha  occ. eigenvalues --   -0.57583  -0.57564  -0.57137  -0.56831  -0.56804
 Alpha  occ. eigenvalues --   -0.56722  -0.56717  -0.56711  -0.56707  -0.56686
 Alpha  occ. eigenvalues --   -0.56638  -0.55105  -0.55101  -0.55076  -0.55067
 Alpha  occ. eigenvalues --   -0.55059  -0.55050  -0.54994  -0.54973  -0.54949
 Alpha  occ. eigenvalues --   -0.53855  -0.53841  -0.53836  -0.52726  -0.52708
 Alpha  occ. eigenvalues --   -0.52145  -0.51865  -0.51859  -0.51851  -0.51846
 Alpha  occ. eigenvalues --   -0.51395  -0.51371  -0.49790  -0.49776  -0.49219
 Alpha  occ. eigenvalues --   -0.48777  -0.48066  -0.47999  -0.47962  -0.47709
 Alpha  occ. eigenvalues --   -0.47486  -0.47234  -0.47048  -0.47044  -0.47037
 Alpha  occ. eigenvalues --   -0.47032  -0.47027  -0.46644  -0.46579  -0.46167
 Alpha  occ. eigenvalues --   -0.46100  -0.45955  -0.45815  -0.45793  -0.45789
 Alpha  occ. eigenvalues --   -0.45785  -0.45778  -0.45729  -0.44929  -0.40904
 Alpha  occ. eigenvalues --   -0.40894  -0.40324  -0.40322  -0.40172  -0.38270
 Alpha  occ. eigenvalues --   -0.37968  -0.37657  -0.37533  -0.37466  -0.37342
 Alpha  occ. eigenvalues --   -0.37028  -0.36906  -0.36632  -0.36521  -0.36441
 Alpha  occ. eigenvalues --   -0.36297  -0.35993  -0.35874  -0.35800  -0.30851
 Alpha  occ. eigenvalues --   -0.30792  -0.30757  -0.30742  -0.30700  -0.26409
 Alpha virt. eigenvalues --   -0.06020  -0.05979  -0.05927  -0.03978  -0.03960
 Alpha virt. eigenvalues --   -0.00512  -0.00479  -0.00379   0.04284   0.04388
 Alpha virt. eigenvalues --    0.04478   0.04526   0.04549   0.04577   0.04661

 Mulliken charges:
               1
     1  C   -0.171883
     2  C   -0.172934
     3  C   -0.194074
     4  C    0.018830
     5  C   -0.195416
     6  C    0.014942
     7  C    0.431026
     8  N   -0.544140
     9  H    0.180972
    10  H    0.180818
    11  H    0.197758
    12  H    0.197603
    13  C    0.424285
    14  N   -0.464269
    15  C   -0.171562
    16  C   -0.172833
    17  C   -0.193020
    18  C    0.015081
    19  C   -0.193946
    20  C    0.014832
    21  C    0.427116
    22  N   -0.546595
    23  H    0.180833
    24  H    0.180914
    25  H    0.197628
    26  H    0.197711
    27  B    0.509814
    28  C    0.429126
    29  N   -0.465832
    30  C   -0.174898
    31  C   -0.172488
    32  C   -0.193916
    33  C    0.017701
    34  C   -0.195747
    35  C    0.014642
    36  C    0.428556
    37  N   -0.548331
    38  H    0.180918
    39  H    0.180758
    40  H    0.197235
    41  H    0.197899
    42  C    0.431757
    43  N   -0.463947
    44  Cl  -0.190063
    45  C   -0.001114
    46  C   -0.004745
    47  C   -0.003173
    48  C   -0.000769
    49  C   -0.001084
    50  C   -0.000623
    51  C   -0.000606
    52  C   -0.000735
    53  C   -0.000802
    54  C   -0.004522
    55  C   -0.001138
    56  C   -0.004830
    57  C    0.011555
    58  C    0.013096
    59  C    0.004296
    60  C   -0.005584
    61  C   -0.004605
    62  C    0.004090
    63  C    0.000675
    64  C   -0.011565
    65  C   -0.016544
    66  C    0.011684
    67  C    0.012835
    68  C   -0.004646
    69  C   -0.002166
    70  C   -0.001153
    71  C   -0.000726
    72  C   -0.000529
    73  C   -0.000640
    74  C   -0.000372
    75  C   -0.000252
    76  C   -0.000690
    77  C   -0.000516
    78  C   -0.000944
    79  C   -0.001518
    80  C   -0.002822
    81  C   -0.004459
    82  C   -0.003299
    83  C    0.012382
    84  C    0.018131
    85  C    0.018377
    86  C   -0.011563
    87  C   -0.002322
    88  C   -0.001068
    89  C   -0.001402
    90  C   -0.001870
    91  C   -0.001660
    92  C   -0.010626
    93  C   -0.002552
    94  C   -0.000907
    95  C   -0.001336
    96  C   -0.000925
    97  C   -0.000910
    98  C   -0.000534
    99  C   -0.000573
   100  C   -0.000845
   101  C   -0.001550
   102  C   -0.000950
   103  C   -0.000504
   104  C   -0.000710
 Sum of Mulliken charges =   0.00000

 Dipole moment (field-independent basis, Debye):
    X=              4.1566    Y=              0.0587    Z=             -0.0026  Tot=              4.1570
 Quadrupole moment (field-independent basis, Debye-Ang):
   XX=           -558.2213   YY=           -481.7243   ZZ=           -482.2481
   XY=             -0.5929   XZ=             -0.0979   YZ=              0.0913

 Normal termination of Gaussian 09 at Thu Aug  2 14:41:28 2018.
