 Gaussian 09, Revision D.01,
 Gaussian 09:  ES64L-G09RevD.01 24-Apr-2013

 ----------------------------------------------------------------------
 #p td CAM-B3LYP/6-31g* TD=(singlets,root=1,nstates=10) units=(ang,deg)
 ----------------------------------------------------------------------

 ---------
 SubPc-C60
 ---------
 Symbolic Z-matrix:
 Charge =  0 Multiplicity = 1

                         Standard orientation:
 ---------------------------------------------------------------------
 Center     Atomic      Atomic             Coordinates (Angstroms)
 Number     Number       Type             X           Y           Z
 ---------------------------------------------------------------------
      1          6           0       -2.274508   -3.377063   -4.125801
      2          6           0       -2.263053   -2.176926   -4.857772
      3          6           0       -2.862802   -1.028400   -4.364501
      4          6           0       -3.499115   -1.102110   -3.126404
      5          6           0       -2.882960   -3.455724   -2.882831
      6          6           0       -3.508892   -2.312701   -2.386370
      7          6           0       -4.084811   -0.076619   -2.279894
      8          7           0       -4.526754   -0.727402   -1.167380
      9          1           0       -1.785971   -4.253872   -4.539092
     10          1           0       -1.764636   -2.148866   -5.821605
     11          1           0       -2.832007   -0.091627   -4.910642
     12          1           0       -2.867978   -4.371314   -2.301162
     13          6           0       -4.094484   -2.017803   -1.089182
     14          7           0       -3.961881   -2.665579    0.070485
     15          6           0       -2.371410    5.281630   -0.851460
     16          6           0       -2.379280    5.322023    0.553886
     17          6           0       -2.960177    4.307426    1.298559
     18          6           0       -3.561290    3.252658    0.613032
     19          6           0       -2.944894    4.226267   -1.543315
     20          6           0       -3.553956    3.212454   -0.805311
     21          6           0       -4.123471    1.994237    1.075231
     22          7           0       -4.543935    1.346366   -0.047835
     23          1           0       -1.895073    6.087256   -1.401311
     24          1           0       -1.909632    6.158443    1.061923
     25          1           0       -2.941882    4.318032    2.383175
     26          1           0       -2.914117    4.173662   -2.626437
     27          5           0       -5.140800   -0.017002   -0.012185
     28          6           0       -4.111764    1.929946   -1.201203
     29          7           0       -3.958470    1.250980   -2.339371
     30          6           0       -2.310268   -1.891396    4.977009
     31          6           0       -2.317412   -3.133315    4.316477
     32          6           0       -2.919605   -3.285852    3.077934
     33          6           0       -3.541645   -2.174173    2.510303
     34          6           0       -2.910472   -0.775822    4.415263
     35          6           0       -3.539829   -0.923162    3.179374
     36          6           0       -4.107319   -1.952956    1.189853
     37          7           0       -4.538028   -0.659633    1.187425
     38          1           0       -1.815817   -1.805780    5.939523
     39          1           0       -1.828734   -3.983267    4.782403
     40          1           0       -2.898251   -4.233292    2.550088
     41          1           0       -2.883640    0.191304    4.905881
     42          6           0       -4.113578    0.052976    2.268586
     43          7           0       -3.985222    1.381555    2.252456
     44         17           0       -6.997849   -0.028252   -0.021038
     45          6           0        3.040435   -2.414302    2.462691
     46          6           0        1.602499   -2.559042    2.348738
     47          6           0        1.317712   -3.225126    1.092498
     48          6           0        2.579125   -3.491600    0.430081
     49          6           0        3.643551   -2.990730    1.277009
     50          6           0        4.759588   -2.397094    0.708300
     51          6           0        4.861924   -2.276173   -0.732561
     52          6           0        3.843880   -2.754375   -1.542479
     53          6           0        2.677201   -3.376098   -0.948296
     54          6           0        1.518203   -2.989521   -1.728605
     55          6           0        0.313102   -2.731881   -1.094866
     56          6           0        0.210140   -2.853292    0.346386
     57          6           0       -0.657833   -1.796230    0.821680
     58          6           0       -0.383438   -1.159137    2.018985
     59          6           0        0.767874   -1.550192    2.803519
     60          6           0        1.330611   -0.352511    3.395754
     61          6           0        0.519763    0.775955    2.981629
     62          6           0       -0.540281    0.275164    2.130591
     63          6           0       -0.958524    1.012891    1.036171
     64          6           0       -1.246951    0.348285   -0.218610
     65          6           0       -1.093666   -1.024520   -0.322668
     66          6           0       -0.492613   -1.601471   -1.506735
     67          6           0       -0.065890   -0.780129   -2.535968
     68          6           0        1.193882   -1.048251   -3.199179
     69          6           0        1.968797   -2.128027   -2.804771
     70          6           0        3.406425   -1.982747   -2.689277
     71          6           0        4.006731   -0.766313   -2.975093
     72          6           0        5.071419   -0.266035   -2.127753
     73          6           0        5.489384   -1.004077   -1.031630
     74          6           0        5.774190   -0.338419    0.223871
     75          6           0        5.628259    1.035967    0.328640
     76          6           0        5.190843    1.808081   -0.817554
     77          6           0        4.918856    1.171548   -2.018268
     78          6           0        3.759825    1.559376   -2.797700
     79          6           0        3.196179    0.361836   -3.388879
     80          6           0        1.821102    0.224008   -3.497850
     81          6           0        0.946342    1.277726   -3.021547
     82          6           0       -0.220748    0.656816   -2.427423
     83          6           0       -0.794525    1.208471   -1.294193
     84          6           0       -0.230997    2.404597   -0.703153
     85          6           0       -0.333082    2.284172    0.736882
     86          6           0        0.681738    2.764824    1.548305
     87          6           0        1.119309    1.992349    2.694862
     88          6           0        2.557217    2.136201    2.808958
     89          6           0        3.007702    2.996679    1.732425
     90          6           0        1.848275    3.385123    0.953525
     91          6           0        1.946512    3.500722   -0.424856
     92          6           0        0.882607    3.000787   -1.272359
     93          6           0        1.485845    2.423243   -2.457141
     94          6           0        2.923809    2.566667   -2.342148
     95          6           0        3.208288    3.232523   -1.086120
     96          6           0        4.316989    2.862084   -0.341024
     97          6           0        4.214166    2.741082    1.099862
     98          6           0        5.024586    1.612550    1.513507
     99          6           0        4.593829    0.789569    2.542064
    100          6           0        3.332409    1.057029    3.204354
    101          6           0        2.705550   -0.214940    3.504618
    102          6           0        3.579668   -1.268809    3.027241
    103          6           0        4.746595   -0.647874    2.432401
    104          6           0        5.323472   -1.199572    1.299254
 ---------------------------------------------------------------------

 SCF Done:  E(RCAM-B3LYP) =  -4019.77788894     A.U. after   18 cycles

 Excitation energies and oscillator strengths:

 Excited State   1:      Singlet-A      2.5457 eV  487.03 nm  f=0.0030  <S**2>=0.000
     290 -> 291        0.61262
     290 -> 292       -0.27353
     290 -> 296       -0.10839
     290 -> 297       -0.11536
 This state for optimization and/or second-order correction.
 Total Energy, E(CIS) =  -4019.68433591
 Copying the excited state density for this state as the 1-particle RhoCI density.

 Excited State   2:      Singlet-A      2.5856 eV  479.51 nm  f=0.0132  <S**2>=0.000
     287 -> 293        0.10293
     290 -> 292        0.11522
     290 -> 293        0.64165
     290 -> 295        0.10831
     290 -> 298        0.13741

 Excited State   3:      Singlet-A      2.6446 eV  468.82 nm  f=0.0023  <S**2>=0.000
     285 -> 291       -0.12645
     285 -> 292       -0.25623
     286 -> 292       -0.23124
     286 -> 293        0.14713
     287 -> 292       -0.21373
     289 -> 291        0.40230
     289 -> 292       -0.20989
     290 -> 292       -0.21113

 Excited State   4:      Singlet-A      2.6541 eV  467.15 nm  f=0.0035  <S**2>=0.000
     285 -> 291       -0.10073
     286 -> 291        0.33545
     286 -> 292       -0.10094
     287 -> 291       -0.28726
     287 -> 293       -0.15968
     288 -> 291       -0.16357
     288 -> 292        0.23743
     289 -> 291       -0.10772
     289 -> 293        0.33697
     290 -> 293        0.10861

 Excited State   5:      Singlet-A      2.6630 eV  465.57 nm  f=0.0026  <S**2>=0.000
     285 -> 291        0.29069
     285 -> 292        0.16094
     286 -> 292       -0.10490
     287 -> 292       -0.30688
     288 -> 293        0.43379
     289 -> 291       -0.16871

 Excited State   6:      Singlet-A      2.6797 eV  462.68 nm  f=0.0065  <S**2>=0.000
     285 -> 291        0.21372
     285 -> 292        0.22173
     286 -> 293        0.14391
     287 -> 291       -0.27721
     288 -> 291       -0.16619
     288 -> 292       -0.12019
     289 -> 291        0.35929
     290 -> 291        0.14301
     290 -> 292        0.23896

 Excited State   7:      Singlet-A      2.6933 eV  460.34 nm  f=0.0011  <S**2>=0.000
     286 -> 292        0.34218
     287 -> 293       -0.16256
     288 -> 291        0.19604
     288 -> 292        0.21563
     288 -> 293        0.14041
     289 -> 291        0.26144
     289 -> 292        0.36594

 Excited State   8:      Singlet-A      2.6943 eV  460.16 nm  f=0.0004  <S**2>=0.000
     285 -> 291       -0.24648
     285 -> 292       -0.13329
     286 -> 293        0.14931
     287 -> 292        0.12634
     287 -> 293        0.12286
     288 -> 291       -0.26732
     288 -> 292       -0.26265
     288 -> 293        0.26389
     289 -> 292        0.32742
     289 -> 293       -0.11816

 Excited State   9:      Singlet-A      2.7134 eV  456.93 nm  f=0.0092  <S**2>=0.000
     285 -> 291        0.40045
     286 -> 291        0.21883
     286 -> 292       -0.14003
     286 -> 293       -0.11799
     287 -> 292        0.11178
     287 -> 293        0.21072
     288 -> 293       -0.18537
     289 -> 291        0.11956
     289 -> 292        0.18138
     290 -> 291       -0.12690
     290 -> 292       -0.22198
     290 -> 295        0.10190

 Excited State  10:      Singlet-A      2.7197 eV  455.88 nm  f=0.0027  <S**2>=0.000
     286 -> 291       -0.19988
     286 -> 292        0.15608
     287 -> 291       -0.26290
     287 -> 292        0.13312
     287 -> 293        0.43948
     288 -> 292        0.11162
     288 -> 293        0.13487
     289 -> 292       -0.18503
     289 -> 293        0.11972
     290 -> 292       -0.19608

 The electronic state is 1-A.
 Alpha  occ. eigenvalues -- -101.56492 -14.45514 -14.45500 -14.45493 -14.43542
 Alpha  occ. eigenvalues --  -14.43509 -14.43497 -10.35732 -10.35718 -10.35705
 Alpha  occ. eigenvalues --  -10.35680 -10.35671 -10.35665 -10.30192 -10.30185
 Alpha  occ. eigenvalues --  -10.30181 -10.30175 -10.30172 -10.30168 -10.30165
 Alpha  occ. eigenvalues --  -10.30162 -10.30159 -10.30157 -10.30156 -10.30152
 Alpha  occ. eigenvalues --  -10.30150 -10.30148 -10.30146 -10.30140 -10.30132
 Alpha  occ. eigenvalues --  -10.30123 -10.30122 -10.30117 -10.30114 -10.30112
 Alpha  occ. eigenvalues --  -10.30109 -10.30107 -10.30104 -10.30101 -10.30098
 Alpha  occ. eigenvalues --  -10.30095 -10.30094 -10.30093 -10.30089 -10.30087
 Alpha  occ. eigenvalues --  -10.30083 -10.30080 -10.30077 -10.30074 -10.30072
 Alpha  occ. eigenvalues --  -10.30067 -10.30067 -10.30065 -10.30057 -10.30053
 Alpha  occ. eigenvalues --  -10.30050 -10.30046 -10.30042 -10.30041 -10.30037
 Alpha  occ. eigenvalues --  -10.30032 -10.30024 -10.30015 -10.30001 -10.29994
 Alpha  occ. eigenvalues --  -10.29970 -10.29961 -10.29956 -10.29951 -10.29945
 Alpha  occ. eigenvalues --  -10.29924 -10.29920 -10.29894 -10.29008 -10.28993
 Alpha  occ. eigenvalues --  -10.28960 -10.28949 -10.28928 -10.28902 -10.28319
 Alpha  occ. eigenvalues --  -10.28317 -10.28304 -10.28298 -10.28281 -10.28240
 Alpha  occ. eigenvalues --  -10.28107 -10.28099 -10.28085 -10.28055 -10.28049
 Alpha  occ. eigenvalues --  -10.28034  -9.48421  -7.24632  -7.24055  -7.24055
 Alpha  occ. eigenvalues --   -6.88525  -1.14745  -1.10398  -1.10380  -1.05564
 Alpha  occ. eigenvalues --   -1.03554  -1.03519  -1.03510  -1.02414  -1.02397
 Alpha  occ. eigenvalues --   -0.99636  -0.99622  -0.99619  -0.99597  -0.99592
 Alpha  occ. eigenvalues --   -0.97751  -0.96197  -0.95493  -0.95444  -0.95413
 Alpha  occ. eigenvalues --   -0.95220  -0.95186  -0.92297  -0.92283  -0.92278
 Alpha  occ. eigenvalues --   -0.92269  -0.88455  -0.87019  -0.86962  -0.86957
 Alpha  occ. eigenvalues --   -0.86949  -0.86945  -0.86871  -0.85644  -0.85632
 Alpha  occ. eigenvalues --   -0.85614  -0.85285  -0.85269  -0.85261  -0.85245
 Alpha  occ. eigenvalues --   -0.85001  -0.84975  -0.81321  -0.79312  -0.79310
 Alpha  occ. eigenvalues --   -0.79302  -0.79296  -0.79294  -0.77870  -0.77864
 Alpha  occ. eigenvalues --   -0.77860  -0.77096  -0.77090  -0.75445  -0.73600
 Alpha  occ. eigenvalues --   -0.73589  -0.73584  -0.72457  -0.72434  -0.69637
 Alpha  occ. eigenvalues --   -0.69634  -0.69630  -0.69625  -0.69620  -0.69225
 Alpha  occ. eigenvalues --   -0.69208  -0.69125  -0.69119  -0.69102  -0.67490
 Alpha  occ. eigenvalues --   -0.66794  -0.66525  -0.66519  -0.66278  -0.62850
 Alpha  occ. eigenvalues --   -0.62837  -0.62400  -0.62375  -0.62371  -0.62369
 Alpha  occ. eigenvalues --   -0.60385  -0.59691  -0.59688  -0.59681  -0.59678
 Alpha  occ. eigenvalues --   -0.59674  -0.58995  -0.58291  -0.58113  -0.58108
 Alpha  occ. eigenvalues --   -0.58106  -0.57566  -0.57553  -0.56187  -0.56173
 Alpha  occ. eigenvalues --   -0.55542  -0.55532  -0.55522  -0.55466  -0.54704
 Alpha  occ. eigenvalues --   -0.53412  -0.53362  -0.52997  -0.52746  -0.52737
 Alpha  occ. eigenvalues --   -0.52729  -0.52726  -0.52716  -0.52576  -0.52538
 Alpha  occ. eigenvalues --   -0.51856  -0.51837  -0.51292  -0.51096  -0.51071
 Alpha  occ. eigenvalues --   -0.50985  -0.50769  -0.50765  -0.50762  -0.50757
 Alpha  occ. eigenvalues --   -0.50740  -0.49348  -0.49333  -0.49332  -0.49324
 Alpha  occ. eigenvalues --   -0.48283  -0.48258  -0.48131  -0.48114  -0.48103
 Alpha  occ. eigenvalues --   -0.48005  -0.47996  -0.47989  -0.46902  -0.46894
 Alpha  occ. eigenvalues --   -0.46196  -0.46191  -0.46187  -0.46181  -0.45771
 Alpha  occ. eigenvalues --   -0.45027  -0.45007  -0.44469  -0.44458  -0.43566
 Alpha  occ. eigenvalues --   -0.43240  -0.42743  -0.42131  -0.42044  -0.41737
 Alpha  occ. eigenvalues --   -0.41653  -0.41609  -0.41600  -0.41595  -0.41585
 Alpha  occ. eigenvalues --   -0.41581  -0.41544  -0.40971  -0.40764  -0.40390
 Alpha  occ. eigenvalues --   -0.40389  -0.40384  -0.40380  -0.40368  -0.39937
 Alpha  occ. eigenvalues --   -0.39885  -0.39775  -0.39599  -0.39217  -0.35344
 Alpha  occ. eigenvalues --   -0.35333  -0.34802  -0.34791  -0.34770  -0.33124
 Alpha  occ. eigenvalues --   -0.32654  -0.32438  -0.32153  -0.32067  -0.31952
 Alpha  occ. eigenvalues --   -0.31861  -0.31778  -0.31634  -0.31506  -0.31357
 Alpha  occ. eigenvalues --   -0.31298  -0.31155  -0.30828  -0.30748  -0.26201
 Alpha  occ. eigenvalues --   -0.26154  -0.26122  -0.26110  -0.26066  -0.22964
 Alpha virt. eigenvalues --   -0.08045  -0.08004  -0.07955  -0.06125  -0.06110
 Alpha virt. eigenvalues --   -0.03066  -0.03033  -0.02941   0.01132   0.01192
 Alpha virt. eigenvalues --    0.01308   0.01521   0.01545   0.01559   0.01786

 Mulliken charges:
               1
     1  C   -0.138546
     2  C   -0.139291
     3  C   -0.180921
     4  C    0.057924
     5  C   -0.181870
     6  C    0.053265
     7  C    0.415787
     8  N   -0.532790
     9  H    0.147984
    10  H    0.147858
    11  H    0.164926
    12  H    0.164760
    13  C    0.410166
    14  N   -0.485429
    15  C   -0.138198
    16  C   -0.139259
    17  C   -0.180223
    18  C    0.054445
    19  C   -0.180956
    20  C    0.054123
    21  C    0.412166
    22  N   -0.534949
    23  H    0.147816
    24  H    0.147894
    25  H    0.164647
    26  H    0.164753
    27  B    0.534861
    28  C    0.414298
    29  N   -0.487056
    30  C   -0.141057
    31  C   -0.139062
    32  C   -0.180673
    33  C    0.055686
    34  C   -0.182246
    35  C    0.053785
    36  C    0.413610
    37  N   -0.535836
    38  H    0.147895
    39  H    0.147733
    40  H    0.164405
    41  H    0.165004
    42  C    0.416186
    43  N   -0.485071
    44  Cl  -0.212891
    45  C   -0.001092
    46  C   -0.004591
    47  C   -0.002624
    48  C   -0.000765
    49  C   -0.000924
    50  C   -0.000628
    51  C   -0.000647
    52  C   -0.000572
    53  C   -0.000647
    54  C   -0.004192
    55  C   -0.003222
    56  C   -0.006546
    57  C    0.010472
    58  C    0.016794
    59  C    0.001387
    60  C   -0.005105
    61  C   -0.005874
    62  C    0.003043
    63  C    0.000876
    64  C   -0.011644
    65  C   -0.014571
    66  C    0.013131
    67  C    0.013615
    68  C   -0.006182
    69  C   -0.002140
    70  C   -0.001149
    71  C   -0.000563
    72  C   -0.000656
    73  C   -0.000397
    74  C   -0.000378
    75  C   -0.000285
    76  C   -0.000416
    77  C   -0.000580
    78  C   -0.000798
    79  C   -0.001361
    80  C   -0.002503
    81  C   -0.004082
    82  C   -0.004958
    83  C    0.011920
    84  C    0.018434
    85  C    0.017766
    86  C   -0.012934
    87  C   -0.001808
    88  C   -0.001231
    89  C   -0.001142
    90  C   -0.001531
    91  C   -0.001465
    92  C   -0.011806
    93  C   -0.002238
    94  C   -0.000879
    95  C   -0.001063
    96  C   -0.001126
    97  C   -0.000893
    98  C   -0.000336
    99  C   -0.000627
   100  C   -0.000601
   101  C   -0.001404
   102  C   -0.000781
   103  C   -0.000498
   104  C   -0.000633
 Sum of Mulliken charges =   0.00000

 Dipole moment (field-independent basis, Debye):
    X=              4.0736    Y=              0.0482    Z=             -0.0035  Tot=              4.0739
 Quadrupole moment (field-independent basis, Debye-Ang):
   XX=           -558.5090   YY=           -484.9272   ZZ=           -485.3590
   XY=             -0.5391   XZ=             -0.0877   YZ=              0.0981

 Normal termination of Gaussian 09 at Thu Aug  2 13:15:22 2018.
